 Entering Gaussian System, Link 0=/home/mmm0534/bin/g09E/g09
 Initial command:
 /home/mmm0534/bin/g09E/l1.exe "/scratch/scratch/mmm0534/g09scr/Gau-21682.inp" -scrdir="/scratch/scratch/mmm0534/g09scr/"
 Entering Link 1 = /home/mmm0534/bin/g09E/l1.exe PID=     21683.
  
 Copyright (c) 1988,1990,1992,1993,1995,1998,2003,2009,2015,
            Gaussian, Inc.  All Rights Reserved.
  
 This is part of the Gaussian(R) 09 program.  It is based on
 the Gaussian(R) 03 system (copyright 2003, Gaussian, Inc.),
 the Gaussian(R) 98 system (copyright 1998, Gaussian, Inc.),
 the Gaussian(R) 94 system (copyright 1995, Gaussian, Inc.),
 the Gaussian 92(TM) system (copyright 1992, Gaussian, Inc.),
 the Gaussian 90(TM) system (copyright 1990, Gaussian, Inc.),
 the Gaussian 88(TM) system (copyright 1988, Gaussian, Inc.),
 the Gaussian 86(TM) system (copyright 1986, Carnegie Mellon
 University), and the Gaussian 82(TM) system (copyright 1983,
 Carnegie Mellon University). Gaussian is a federally registered
 trademark of Gaussian, Inc.
  
 This software contains proprietary and confidential information,
 including trade secrets, belonging to Gaussian, Inc.
  
 This software is provided under written license and may be
 used, copied, transmitted, or stored only in accord with that
 written license.
  
 The following legend is applicable only to US Government
 contracts under FAR:
  
                    RESTRICTED RIGHTS LEGEND
  
 Use, reproduction and disclosure by the US Government is
 subject to restrictions as set forth in subparagraphs (a)
 and (c) of the Commercial Computer Software - Restricted
 Rights clause in FAR 52.227-19.
  
 Gaussian, Inc.
 340 Quinnipiac St., Bldg. 40, Wallingford CT 06492
  
  
 ---------------------------------------------------------------
 Warning -- This program may not be used in any manner that
 competes with the business of Gaussian, Inc. or will provide
 assistance to any competitor of Gaussian, Inc.  The licensee
 of this program is prohibited from giving any competitor of
 Gaussian, Inc. access to this program.  By using this program,
 the user acknowledges that Gaussian, Inc. is engaged in the
 business of creating and licensing software in the field of
 computational chemistry and represents and warrants to the
 licensee that it is not a competitor of Gaussian, Inc. and that
 it will not use this program in any manner prohibited above.
 ---------------------------------------------------------------
  

 Cite this work as:
 Gaussian 09, Revision E.01,
 M. J. Frisch, G. W. Trucks, H. B. Schlegel, G. E. Scuseria, 
 M. A. Robb, J. R. Cheeseman, G. Scalmani, V. Barone, B. Mennucci, 
 G. A. Petersson, H. Nakatsuji, M. Caricato, X. Li, H. P. Hratchian, 
 A. F. Izmaylov, J. Bloino, G. Zheng, J. L. Sonnenberg, M. Hada, 
 M. Ehara, K. Toyota, R. Fukuda, J. Hasegawa, M. Ishida, T. Nakajima, 
 Y. Honda, O. Kitao, H. Nakai, T. Vreven, J. A. Montgomery, Jr., 
 J. E. Peralta, F. Ogliaro, M. Bearpark, J. J. Heyd, E. Brothers, 
 K. N. Kudin, V. N. Staroverov, T. Keith, R. Kobayashi, J. Normand, 
 K. Raghavachari, A. Rendell, J. C. Burant, S. S. Iyengar, J. Tomasi, 
 M. Cossi, N. Rega, J. M. Millam, M. Klene, J. E. Knox, J. B. Cross, 
 V. Bakken, C. Adamo, J. Jaramillo, R. Gomperts, R. E. Stratmann, 
 O. Yazyev, A. J. Austin, R. Cammi, C. Pomelli, J. W. Ochterski, 
 R. L. Martin, K. Morokuma, V. G. Zakrzewski, G. A. Voth, 
 P. Salvador, J. J. Dannenberg, S. Dapprich, A. D. Daniels, 
 O. Farkas, J. B. Foresman, J. V. Ortiz, J. Cioslowski, 
 and D. J. Fox, Gaussian, Inc., Wallingford CT, 2013.
 
 ******************************************
 Gaussian 09:  ES64L-G09RevE.01 30-Nov-2015
                 6-Jun-2019 
 ******************************************
 %chk=cas_1074-36-8_spid_86425.chk
 %nproc=24
 Will use up to   24 processors via shared memory.
 %mem=120GB
 -------------------------------------------------------------------
 #P Geom=AllCheck Guess=TCheck SCRF=Check GenChk RB3LYP/def2SVP Freq
 -------------------------------------------------------------------
 1/10=4,29=7,30=1,38=1,40=1/1,3;
 2/12=2,15=1,40=1/2;
 3/5=43,7=101,11=2,14=-4,16=1,25=1,30=1,70=2,71=2,74=-5,75=-5,116=1,124=41,140=1/1,2,3;
 4/5=101/1;
 5/5=2,38=6,98=1/2;
 8/6=4,10=90,11=11/1;
 10/13=10,15=4,31=1/2;
 11/6=3,8=1,9=11,15=111,16=1,31=1/1,2,10;
 10/6=1,31=1/2;
 6/7=2,8=2,9=2,10=2,18=1,28=1,40=1/1,7;
 7/8=1,10=1,25=1,30=1/1,2,3,16;
 1/10=4,30=1/3;
 99//99;
 Leave Link    1 at Thu Jun  6 11:41:52 2019, MaxMem= 16106127360 cpu:         1.8
 (Enter /home/mmm0534/bin/g09E/l101.exe)
 Structure from the checkpoint file:  "cas_1074-36-8_spid_86425.chk"
 -------
 comment
 -------
 Charge =  0 Multiplicity = 1
 Redundant internal coordinates found in file.
 S,0,1.5759313449,3.2194498926,-0.0641320206
 O,0,-0.8494284365,-3.1745360102,0.3616934822
 O,0,-2.6315577726,-2.0776752893,-0.3763007298
 C,0,-0.6606796859,-0.7876492938,-0.0315198475
 C,0,0.7417885803,-0.7754135408,-0.0099376178
 C,0,-1.3423113374,0.4383248887,-0.0897389767
 C,0,0.7597715936,1.6478388572,-0.0559980862
 C,0,1.4490289677,0.4252103184,-0.0213895714
 C,0,-0.6472260905,1.641054158,-0.0925775596
 C,0,-1.4769547244,-2.0440466818,-0.040339562
 H,0,1.3119791561,-1.7090019171,-0.0162163326
 H,0,-2.4326565256,0.4216717868,-0.131247391
 H,0,2.5408968605,0.4085239578,-0.0126234969
 H,0,-1.1942618224,2.5860173161,-0.127690186
 H,0,2.8403499391,2.7434652666,-0.0313305507
 H,0,0.0152299531,-2.9632337091,0.7393484465
 Recover connectivity data from disk.
 NAtoms=     16 NQM=       16 NQMF=       0 NMMI=      0 NMMIF=      0
                NMic=       0 NMicF=      0.
                    Isotopes and Nuclear Properties:
 (Nuclear quadrupole moments (NQMom) in fm**2, nuclear magnetic moments (NMagM)
  in nuclear magnetons)

  Atom         1           2           3           4           5           6           7           8           9          10
 IAtWgt=          32          16          16          12          12          12          12          12          12          12
 AtmWgt=  31.9720718  15.9949146  15.9949146  12.0000000  12.0000000  12.0000000  12.0000000  12.0000000  12.0000000  12.0000000
 NucSpn=           0           0           0           0           0           0           0           0           0           0
 AtZEff= -13.6000000  -5.6000000  -5.6000000  -3.6000000  -3.6000000  -3.6000000  -3.6000000  -3.6000000  -3.6000000  -3.6000000
 NQMom=    0.0000000   0.0000000   0.0000000   0.0000000   0.0000000   0.0000000   0.0000000   0.0000000   0.0000000   0.0000000
 NMagM=    0.0000000   0.0000000   0.0000000   0.0000000   0.0000000   0.0000000   0.0000000   0.0000000   0.0000000   0.0000000
 AtZNuc=  16.0000000   8.0000000   8.0000000   6.0000000   6.0000000   6.0000000   6.0000000   6.0000000   6.0000000   6.0000000

  Atom        11          12          13          14          15          16
 IAtWgt=           1           1           1           1           1           1
 AtmWgt=   1.0078250   1.0078250   1.0078250   1.0078250   1.0078250   1.0078250
 NucSpn=           1           1           1           1           1           1
 AtZEff=  -1.0000000  -1.0000000  -1.0000000  -1.0000000  -1.0000000  -1.0000000
 NQMom=    0.0000000   0.0000000   0.0000000   0.0000000   0.0000000   0.0000000
 NMagM=    2.7928460   2.7928460   2.7928460   2.7928460   2.7928460   2.7928460
 AtZNuc=   1.0000000   1.0000000   1.0000000   1.0000000   1.0000000   1.0000000
 Leave Link  101 at Thu Jun  6 11:41:52 2019, MaxMem= 16106127360 cpu:         7.1
 (Enter /home/mmm0534/bin/g09E/l103.exe)

 GradGradGradGradGradGradGradGradGradGradGradGradGradGradGradGradGradGrad
 Berny optimization.
 Initialization pass.
                           ----------------------------
                           !    Initial Parameters    !
                           ! (Angstroms and Degrees)  !
 --------------------------                            --------------------------
 ! Name  Definition              Value          Derivative Info.                !
 --------------------------------------------------------------------------------
 ! R1    R(1,7)                  1.7709         calculate D2E/DX2 analytically  !
 ! R2    R(1,15)                 1.3514         calculate D2E/DX2 analytically  !
 ! R3    R(2,10)                 1.354          calculate D2E/DX2 analytically  !
 ! R4    R(2,16)                 0.9669         calculate D2E/DX2 analytically  !
 ! R5    R(3,10)                 1.203          calculate D2E/DX2 analytically  !
 ! R6    R(4,5)                  1.4027         calculate D2E/DX2 analytically  !
 ! R7    R(4,6)                  1.4039         calculate D2E/DX2 analytically  !
 ! R8    R(4,10)                 1.4983         calculate D2E/DX2 analytically  !
 ! R9    R(5,8)                  1.3935         calculate D2E/DX2 analytically  !
 ! R10   R(5,11)                 1.094          calculate D2E/DX2 analytically  !
 ! R11   R(6,9)                  1.3891         calculate D2E/DX2 analytically  !
 ! R12   R(6,12)                 1.0913         calculate D2E/DX2 analytically  !
 ! R13   R(7,8)                  1.404          calculate D2E/DX2 analytically  !
 ! R14   R(7,9)                  1.4075         calculate D2E/DX2 analytically  !
 ! R15   R(8,13)                 1.092          calculate D2E/DX2 analytically  !
 ! R16   R(9,14)                 1.0924         calculate D2E/DX2 analytically  !
 ! A1    A(7,1,15)              96.8063         calculate D2E/DX2 analytically  !
 ! A2    A(10,2,16)            110.3622         calculate D2E/DX2 analytically  !
 ! A3    A(5,4,6)              118.5849         calculate D2E/DX2 analytically  !
 ! A4    A(5,4,10)             123.5125         calculate D2E/DX2 analytically  !
 ! A5    A(6,4,10)             117.8723         calculate D2E/DX2 analytically  !
 ! A6    A(4,5,8)              120.9868         calculate D2E/DX2 analytically  !
 ! A7    A(4,5,11)             120.9042         calculate D2E/DX2 analytically  !
 ! A8    A(8,5,11)             118.0802         calculate D2E/DX2 analytically  !
 ! A9    A(4,6,9)              120.8778         calculate D2E/DX2 analytically  !
 ! A10   A(4,6,12)             118.2526         calculate D2E/DX2 analytically  !
 ! A11   A(9,6,12)             120.8696         calculate D2E/DX2 analytically  !
 ! A12   A(1,7,8)              123.1403         calculate D2E/DX2 analytically  !
 ! A13   A(1,7,9)              117.7016         calculate D2E/DX2 analytically  !
 ! A14   A(8,7,9)              119.1574         calculate D2E/DX2 analytically  !
 ! A15   A(5,8,7)              120.0894         calculate D2E/DX2 analytically  !
 ! A16   A(5,8,13)             119.6186         calculate D2E/DX2 analytically  !
 ! A17   A(7,8,13)             120.2896         calculate D2E/DX2 analytically  !
 ! A18   A(6,9,7)              120.286          calculate D2E/DX2 analytically  !
 ! A19   A(6,9,14)             119.8962         calculate D2E/DX2 analytically  !
 ! A20   A(7,9,14)             119.8172         calculate D2E/DX2 analytically  !
 ! A21   A(2,10,3)             120.2915         calculate D2E/DX2 analytically  !
 ! A22   A(2,10,4)             116.479          calculate D2E/DX2 analytically  !
 ! A23   A(3,10,4)             123.2289         calculate D2E/DX2 analytically  !
 ! D1    D(15,1,7,8)             0.083          calculate D2E/DX2 analytically  !
 ! D2    D(15,1,7,9)          -179.6118         calculate D2E/DX2 analytically  !
 ! D3    D(16,2,10,3)         -170.3208         calculate D2E/DX2 analytically  !
 ! D4    D(16,2,10,4)            9.4069         calculate D2E/DX2 analytically  !
 ! D5    D(6,4,5,8)              1.1474         calculate D2E/DX2 analytically  !
 ! D6    D(6,4,5,11)          -176.8626         calculate D2E/DX2 analytically  !
 ! D7    D(10,4,5,8)           179.1004         calculate D2E/DX2 analytically  !
 ! D8    D(10,4,5,11)            1.0904         calculate D2E/DX2 analytically  !
 ! D9    D(5,4,6,9)             -1.5765         calculate D2E/DX2 analytically  !
 ! D10   D(5,4,6,12)           178.5107         calculate D2E/DX2 analytically  !
 ! D11   D(10,4,6,9)          -179.6458         calculate D2E/DX2 analytically  !
 ! D12   D(10,4,6,12)            0.4413         calculate D2E/DX2 analytically  !
 ! D13   D(5,4,10,2)            18.7171         calculate D2E/DX2 analytically  !
 ! D14   D(5,4,10,3)          -161.564          calculate D2E/DX2 analytically  !
 ! D15   D(6,4,10,2)          -163.3162         calculate D2E/DX2 analytically  !
 ! D16   D(6,4,10,3)            16.4026         calculate D2E/DX2 analytically  !
 ! D17   D(4,5,8,7)             -0.0484         calculate D2E/DX2 analytically  !
 ! D18   D(4,5,8,13)          -179.4855         calculate D2E/DX2 analytically  !
 ! D19   D(11,5,8,7)           178.0163         calculate D2E/DX2 analytically  !
 ! D20   D(11,5,8,13)           -1.4208         calculate D2E/DX2 analytically  !
 ! D21   D(4,6,9,7)              0.9063         calculate D2E/DX2 analytically  !
 ! D22   D(4,6,9,14)          -179.358          calculate D2E/DX2 analytically  !
 ! D23   D(12,6,9,7)          -179.1831         calculate D2E/DX2 analytically  !
 ! D24   D(12,6,9,14)            0.5526         calculate D2E/DX2 analytically  !
 ! D25   D(1,7,8,5)            179.6662         calculate D2E/DX2 analytically  !
 ! D26   D(1,7,8,13)            -0.9005         calculate D2E/DX2 analytically  !
 ! D27   D(9,7,8,5)             -0.6432         calculate D2E/DX2 analytically  !
 ! D28   D(9,7,8,13)           178.7901         calculate D2E/DX2 analytically  !
 ! D29   D(1,7,9,6)            179.9261         calculate D2E/DX2 analytically  !
 ! D30   D(1,7,9,14)             0.1902         calculate D2E/DX2 analytically  !
 ! D31   D(8,7,9,6)              0.2188         calculate D2E/DX2 analytically  !
 ! D32   D(8,7,9,14)          -179.5172         calculate D2E/DX2 analytically  !
 --------------------------------------------------------------------------------
 Trust Radius=3.00D-01 FncErr=1.00D-07 GrdErr=1.00D-07
 Number of steps in this run=      2 maximum allowed number of steps=      2.
 GradGradGradGradGradGradGradGradGradGradGradGradGradGradGradGradGradGrad

 Leave Link  103 at Thu Jun  6 11:41:52 2019, MaxMem= 16106127360 cpu:         0.5
 (Enter /home/mmm0534/bin/g09E/l202.exe)
                          Input orientation:                          
 ---------------------------------------------------------------------
 Center     Atomic      Atomic             Coordinates (Angstroms)
 Number     Number       Type             X           Y           Z
 ---------------------------------------------------------------------
      1         16           0        1.575931    3.219450   -0.064132
      2          8           0       -0.849428   -3.174536    0.361693
      3          8           0       -2.631558   -2.077675   -0.376301
      4          6           0       -0.660680   -0.787649   -0.031520
      5          6           0        0.741789   -0.775414   -0.009938
      6          6           0       -1.342311    0.438325   -0.089739
      7          6           0        0.759772    1.647839   -0.055998
      8          6           0        1.449029    0.425210   -0.021390
      9          6           0       -0.647226    1.641054   -0.092578
     10          6           0       -1.476955   -2.044047   -0.040340
     11          1           0        1.311979   -1.709002   -0.016216
     12          1           0       -2.432657    0.421672   -0.131247
     13          1           0        2.540897    0.408524   -0.012623
     14          1           0       -1.194262    2.586017   -0.127690
     15          1           0        2.840350    2.743465   -0.031331
     16          1           0        0.015230   -2.963234    0.739348
 ---------------------------------------------------------------------
                    Distance matrix (angstroms):
                    1          2          3          4          5
     1  S    0.000000
     2  O    6.851770   0.000000
     3  O    6.771997   2.218947   0.000000
     4  C    4.589154   2.426411   2.380630   0.000000
     5  C    4.081380   2.902735   3.634498   1.402688   0.000000
     6  C    4.031309   3.674165   2.841572   1.403932   2.413090
     7  C    1.770916   5.100911   5.048085   2.819554   2.423757
     8  C    2.797446   4.288104   4.800165   2.433516   1.393491
     9  C    2.726641   4.841194   4.224573   2.429508   2.788460
    10  C    6.084823   1.354041   1.202958   1.498305   2.556008
    11  H    4.935748   2.638615   3.977067   2.177271   1.093958
    12  H    4.888849   3.960090   2.519196   2.147628   3.394824
    13  H    2.972392   4.946993   5.750455   3.417789   2.153719
    14  H    2.842402   5.791578   4.886477   3.416956   3.880899
    15  H    1.351441   6.985104   7.300971   4.972522   4.097185
    16  H    6.427048   0.966905   3.005723   2.405049   2.424020
                    6          7          8          9         10
     6  C    0.000000
     7  C    2.425452   0.000000
     8  C    2.792208   1.403957   0.000000
     9  C    1.389140   1.407489   2.424382   0.000000
    10  C    2.486511   4.316620   3.828703   3.777717   0.000000
    11  H    3.414920   3.402190   2.138614   3.881648   2.809090
    12  H    1.091262   3.420635   3.883241   2.162441   2.646015
    13  H    3.884088   2.170297   1.092031   3.419013   4.707335
    14  H    2.153124   2.168770   3.415754   1.092445   4.639508
    15  H    4.776164   2.351555   2.703734   3.658176   6.446664
    16  H    3.755117   4.738028   3.757134   4.725507   1.918185
                   11         12         13         14         15
    11  H    0.000000
    12  H    4.309907   0.000000
    13  H    2.448299   4.974985   0.000000
    14  H    4.974019   2.493597   4.325058   0.000000
    15  H    4.707506   5.762404   2.354140   4.038832   0.000000
    16  H    1.955897   4.267045   4.279393   5.745330   6.414177
                   16
    16  H    0.000000
 Symmetry turned off by external request.
 Stoichiometry    C7H6O2S
 Framework group  C1[X(C7H6O2S)]
 Deg. of freedom    42
 Full point group                 C1      NOp   1
 Rotational constants (GHZ):      3.7835455      0.5538191      0.4857958
 Leave Link  202 at Thu Jun  6 11:41:52 2019, MaxMem= 16106127360 cpu:         0.4
 (Enter /home/mmm0534/bin/g09E/l301.exe)
 Standard basis: def2SVP (5D, 7F)
 Ernie: Thresh=  0.10000D-02 Tol=  0.10000D-05 Strict=F.
   174 basis functions,   304 primitive gaussians,   184 cartesian basis functions
    40 alpha electrons       40 beta electrons
       nuclear repulsion energy       547.2841235631 Hartrees.
 IExCor=  402 DFT=T Ex+Corr=B3LYP ExCW=0 ScaHFX=  0.200000
 ScaDFX=  0.800000  0.720000  1.000000  0.810000 ScalE2=  1.000000  1.000000
 IRadAn=      5 IRanWt=     -1 IRanGd=            0 ICorTp=0 IEmpDi=141
 NAtoms=   16 NActive=   16 NUniq=   16 SFac= 1.00D+00 NAtFMM=   60 NAOKFM=F Big=F
 Integral buffers will be    131072 words long.
 Raffenetti 2 integral format.
 Two-electron integral symmetry is turned off.
 R6Disp:  Grimme-D3(BJ) Dispersion energy=       -0.0325811607 Hartrees.
 Nuclear repulsion after empirical dispersion term =      547.2515424024 Hartrees.
 Leave Link  301 at Thu Jun  6 11:41:52 2019, MaxMem= 16106127360 cpu:         1.1
 (Enter /home/mmm0534/bin/g09E/l302.exe)
 NPDir=0 NMtPBC=     1 NCelOv=     1 NCel=       1 NClECP=     1 NCelD=      1
         NCelK=      1 NCelE2=     1 NClLst=     1 CellRange=     0.0.
 One-electron integrals computed using PRISM.
   1 Symmetry operations used in ECPInt.
 ECPInt:  NShTT=    3240 NPrTT=   12404 LenC2=    3127 LenP2D=    9141.
 LDataN:  DoStor=T MaxTD1= 4 Len=   56
 NBasis=   174 RedAO= T EigKep=  2.86D-04  NBF=   174
 NBsUse=   174 1.00D-06 EigRej= -1.00D+00 NBFU=   174
 Precomputing XC quadrature grid using
 IXCGrd= 4 IRadAn=           5 IRanWt=          -1 IRanGd=           0 AccXCQ= 0.00D+00.
 Generated NRdTot=       0 NPtTot=           0 NUsed=           0 NTot=          32
 NSgBfM=   182   182   182   182   182 MxSgAt=    16 MxSgA2=    16.
 Leave Link  302 at Thu Jun  6 11:41:53 2019, MaxMem= 16106127360 cpu:         8.0
 (Enter /home/mmm0534/bin/g09E/l303.exe)
 DipDrv:  MaxL=1.
 Leave Link  303 at Thu Jun  6 11:41:53 2019, MaxMem= 16106127360 cpu:         0.6
 (Enter /home/mmm0534/bin/g09E/l401.exe)
 Initial guess from the checkpoint file:  "cas_1074-36-8_spid_86425.chk"
 B after Tr=     0.000000    0.000000    0.000000
         Rot=    1.000000    0.000000    0.000000    0.000000 Ang=   0.00 deg.
 Guess basis will be translated and rotated to current coordinates.
 JPrj=2 DoOrth=T DoCkMO=T.
 Leave Link  401 at Thu Jun  6 11:41:53 2019, MaxMem= 16106127360 cpu:         2.0
 (Enter /home/mmm0534/bin/g09E/l502.exe)
 Closed shell SCF:
 Using DIIS extrapolation, IDIIS=  1040.
 Two-electron integral symmetry not used.
 Keep R1 ints in memory in canonical form, NReq=119199315.
 IVT=      125670 IEndB=      125670 NGot= 16106127360 MDV= 15990093766
 LenX= 15990093766 LenY= 15990059469
 Requested convergence on RMS density matrix=1.00D-08 within 128 cycles.
 Requested convergence on MAX density matrix=1.00D-06.
 Requested convergence on             energy=1.00D-06.
 No special actions if energy rises.
 FoFCou: FMM=F IPFlag=           0 FMFlag=           0 FMFlg1=           0
         NFxFlg=           0 DoJE=F BraDBF=F KetDBF=F FulRan=T
         wScrn=  0.000000 ICntrl=     600 IOpCl=  0 I1Cent=           0 NGrid=           0
         NMat0=    1 NMatS0=  15225 NMatT0=    0 NMatD0=    1 NMtDS0=    0 NMtDT0=    0
 Symmetry not used in FoFCou.

 Cycle   1  Pass 1  IDiag  1:
 E= -818.625128863927    
 DIIS: error= 8.34D-09 at cycle   1 NSaved=   1.
 NSaved= 1 IEnMin= 1 EnMin= -818.625128863927     IErMin= 1 ErrMin= 8.34D-09
 ErrMax= 8.34D-09  0.00D+00 EMaxC= 1.00D-01 BMatC= 2.10D-14 BMatP= 2.10D-14
 IDIUse=1 WtCom= 1.00D+00 WtEn= 0.00D+00
 Coeff-Com:  0.100D+01
 Coeff:      0.100D+01
 Gap=     0.181 Goal=   None    Shift=    0.000
 RMSDP=2.50D-09 MaxDP=6.35D-08              OVMax= 1.17D-07

 SCF Done:  E(RB3LYP) =  -818.625128864     A.U. after    1 cycles
            NFock=  1  Conv=0.25D-08     -V/T= 2.0061
 KE= 8.136358536355D+02 PE=-3.020268767257D+03 EE= 8.407562423548D+02
 Leave Link  502 at Thu Jun  6 11:41:54 2019, MaxMem= 16106127360 cpu:        22.0
 (Enter /home/mmm0534/bin/g09E/l801.exe)
 DoSCS=F DFT=T ScalE2(SS,OS)=  1.000000  1.000000
 Range of M.O.s used for correlation:     1   174
 NBasis=   174 NAE=    40 NBE=    40 NFC=     0 NFV=     0
 NROrb=    174 NOA=    40 NOB=    40 NVA=   134 NVB=   134

 **** Warning!!: The largest alpha MO coefficient is  0.15967246D+02

 Leave Link  801 at Thu Jun  6 11:41:54 2019, MaxMem= 16106127360 cpu:         1.3
 (Enter /home/mmm0534/bin/g09E/l1002.exe)
 Minotr:  Closed shell wavefunction.
          Direct CPHF calculation.
          Differentiating once with respect to electric field.
                with respect to dipole field.
          Electric field/nuclear overlap derivatives assumed to be zero.
          Requested convergence is 1.0D-08 RMS, and 1.0D-07 maximum.
          Secondary convergence is 1.0D-12 RMS, and 1.0D-12 maximum.
          NewPWx=F KeepS1=T KeepF1=T KeepIn=T MapXYZ=F SortEE=F KeepMc=T.
          MDV=   16106127054 using IRadAn=       1.
 Generate precomputed XC quadrature information.
 Keep R1 ints in memory in canonical form, NReq=119079898.
 FoFCou: FMM=F IPFlag=           0 FMFlag=           0 FMFlg1=           0
         NFxFlg=           0 DoJE=F BraDBF=F KetDBF=F FulRan=T
         wScrn=  0.000000 ICntrl=     600 IOpCl=  0 I1Cent=           0 NGrid=           0
         NMat0=    1 NMatS0=  15225 NMatT0=    0 NMatD0=    1 NMtDS0=    0 NMtDT0=    0
 Symmetry not used in FoFCou.
          Solving linear equations simultaneously, MaxMat=       0.
          There are     3 degrees of freedom in the 1st order CPHF.  IDoFFX=0 NUNeed=     3.
      3 vectors produced by pass  0 Test12= 1.79D-13 3.33D-08 XBig12= 1.70D+02 7.60D+00.
 AX will form     3 AO Fock derivatives at one time.
      3 vectors produced by pass  1 Test12= 1.79D-13 3.33D-08 XBig12= 4.96D+01 1.95D+00.
      3 vectors produced by pass  2 Test12= 1.79D-13 3.33D-08 XBig12= 1.21D+01 9.35D-01.
      3 vectors produced by pass  3 Test12= 1.79D-13 3.33D-08 XBig12= 2.19D+00 3.62D-01.
      3 vectors produced by pass  4 Test12= 1.79D-13 3.33D-08 XBig12= 4.25D-01 1.79D-01.
      3 vectors produced by pass  5 Test12= 1.79D-13 3.33D-08 XBig12= 9.53D-02 6.69D-02.
      3 vectors produced by pass  6 Test12= 1.79D-13 3.33D-08 XBig12= 1.25D-02 2.35D-02.
      3 vectors produced by pass  7 Test12= 1.79D-13 3.33D-08 XBig12= 4.18D-03 1.48D-02.
      3 vectors produced by pass  8 Test12= 1.79D-13 3.33D-08 XBig12= 3.81D-04 5.11D-03.
      3 vectors produced by pass  9 Test12= 1.79D-13 3.33D-08 XBig12= 2.47D-05 1.08D-03.
      3 vectors produced by pass 10 Test12= 1.79D-13 3.33D-08 XBig12= 6.87D-07 1.89D-04.
      3 vectors produced by pass 11 Test12= 1.79D-13 3.33D-08 XBig12= 3.23D-08 5.34D-05.
      3 vectors produced by pass 12 Test12= 1.79D-13 3.33D-08 XBig12= 8.38D-10 8.52D-06.
      2 vectors produced by pass 13 Test12= 1.79D-13 3.33D-08 XBig12= 2.93D-11 9.74D-07.
      2 vectors produced by pass 14 Test12= 1.79D-13 3.33D-08 XBig12= 7.13D-13 1.16D-07.
 InvSVY:  IOpt=1 It=  1 EMax= 1.07D-14
 Solved reduced A of dimension    43 with     3 vectors.
 End of Minotr F.D. properties file   721 does not exist.
 End of Minotr F.D. properties file   722 does not exist.
 End of Minotr F.D. properties file   788 does not exist.
 Leave Link 1002 at Thu Jun  6 11:42:03 2019, MaxMem= 16106127360 cpu:       209.3
 (Enter /home/mmm0534/bin/g09E/l1101.exe)
 Using compressed storage, NAtomX=    16.
 Will process     17 centers per pass.
   1 Symmetry operations used in ECPInt.
 ECPInt:  NShTT=    3240 NPrTT=   12404 LenC2=    3127 LenP2D=    9141.
 LDataN:  DoStor=T MaxTD1= 5 Len=  102
 R6Disp: Adding Grimme-D3(BJ) dispersion energy 1st derivatives to the gradient.
 Leave Link 1101 at Thu Jun  6 11:42:05 2019, MaxMem= 16106127360 cpu:        42.9
 (Enter /home/mmm0534/bin/g09E/l1102.exe)
 Symmetrizing basis deriv contribution to polar:
 IMax=3 JMax=2 DiffMx= 0.00D+00
 Leave Link 1102 at Thu Jun  6 11:42:06 2019, MaxMem= 16106127360 cpu:        11.1
 (Enter /home/mmm0534/bin/g09E/l1110.exe)
 Forming Gx(P) for the SCF density, NAtomX=    16.
 Integral derivatives from FoFJK, PRISM(SPDF).
 Do as many integral derivatives as possible in FoFJK.
 G2DrvN: MDV=   16106127128.
 G2DrvN: will do    17 centers at a time, making    1 passes.
 PxScal for G2LodP:  IOpCl= 0 ISclPx=1 IMOff=     1 NMtTot=     4 NTT=   15225 ScalPx= 3.27D+00
 Calling FoFCou, ICntrl=  3107 FMM=F I1Cent=   0 AccDes= 0.00D+00.
 FoFJK:  IHMeth= 1 ICntrl=    3107 DoSepK=F KAlg= 0 I1Cent=   0 FoldK=F
 IRaf=         0 NMat=   1 IRICut=       1 DoRegI=T DoRafI=F ISym2E= 0.
 FoFCou: FMM=F IPFlag=           0 FMFlag=      100000 FMFlg1=           0
         NFxFlg=           0 DoJE=F BraDBF=F KetDBF=F FulRan=T
         wScrn=  0.000000 ICntrl=    3107 IOpCl=  0 I1Cent=           0 NGrid=           0
         NMat0=    1 NMatS0=      1 NMatT0=    0 NMatD0=    4 NMtDS0=    3 NMtDT0=    0
 Symmetry not used in FoFCou.
 End of G2Drv F.D. properties file   721 does not exist.
 End of G2Drv F.D. properties file   722 does not exist.
 End of G2Drv F.D. properties file   788 does not exist.
 Leave Link 1110 at Thu Jun  6 11:42:24 2019, MaxMem= 16106127360 cpu:       429.5
 (Enter /home/mmm0534/bin/g09E/l1002.exe)
 Minotr:  Closed shell wavefunction.
          IDoAtm=1111111111111111
          Direct CPHF calculation.
          Differentiating once with respect to electric field.
                with respect to dipole field.
          Differentiating once with respect to nuclear coordinates.
          Requested convergence is 1.0D-08 RMS, and 1.0D-07 maximum.
          Secondary convergence is 1.0D-12 RMS, and 1.0D-12 maximum.
          NewPWx=T KeepS1=F KeepF1=F KeepIn=T MapXYZ=F SortEE=F KeepMc=T.
          MDV=   16106127022 using IRadAn=       1.
 Generate precomputed XC quadrature information.
 Keep R1 ints in memory in canonical form, NReq=119080266.
 FoFCou: FMM=F IPFlag=           0 FMFlag=           0 FMFlg1=           0
         NFxFlg=           0 DoJE=F BraDBF=F KetDBF=F FulRan=T
         wScrn=  0.000000 ICntrl=     600 IOpCl=  0 I1Cent=           0 NGrid=           0
         NMat0=    1 NMatS0=  15225 NMatT0=    0 NMatD0=    1 NMtDS0=    0 NMtDT0=    0
 Symmetry not used in FoFCou.
          Solving linear equations simultaneously, MaxMat=       0.
          There are    51 degrees of freedom in the 1st order CPHF.  IDoFFX=5 NUNeed=    51.
 Will reuse    3 saved solutions.
     45 vectors produced by pass  0 Test12= 1.05D-14 1.96D-09 XBig12= 1.52D-01 1.46D-01.
 AX will form    45 AO Fock derivatives at one time.
     45 vectors produced by pass  1 Test12= 1.05D-14 1.96D-09 XBig12= 3.60D-02 4.48D-02.
     45 vectors produced by pass  2 Test12= 1.05D-14 1.96D-09 XBig12= 3.20D-04 2.88D-03.
     45 vectors produced by pass  3 Test12= 1.05D-14 1.96D-09 XBig12= 2.09D-06 1.93D-04.
     45 vectors produced by pass  4 Test12= 1.05D-14 1.96D-09 XBig12= 4.87D-09 8.27D-06.
     39 vectors produced by pass  5 Test12= 1.05D-14 1.96D-09 XBig12= 5.88D-12 2.45D-07.
     16 vectors produced by pass  6 Test12= 1.05D-14 1.96D-09 XBig12= 4.96D-15 6.70D-09.
 InvSVY:  IOpt=1 It=  1 EMax= 5.55D-16
 Solved reduced A of dimension   280 with    51 vectors.
 FullF1:  Do perturbations    1 to     3.
 Isotropic polarizability for W=    0.000000       96.21 Bohr**3.
 FullF1:  Do perturbations    1 to     6.
 End of Minotr F.D. properties file   721 does not exist.
 End of Minotr F.D. properties file   722 does not exist.
 End of Minotr F.D. properties file   788 does not exist.
 Leave Link 1002 at Thu Jun  6 11:42:41 2019, MaxMem= 16106127360 cpu:       410.5
 (Enter /home/mmm0534/bin/g09E/l601.exe)
 Copying SCF densities to generalized density rwf, IOpCl= 0 IROHF=0.

 **********************************************************************

            Population analysis using the SCF density.

 **********************************************************************

 Alpha  occ. eigenvalues --  -88.87211 -19.18057 -19.11715 -10.31851 -10.24917
 Alpha  occ. eigenvalues --  -10.22656 -10.22076 -10.21702 -10.21582 -10.21480
 Alpha  occ. eigenvalues --   -7.96726  -5.93656  -5.93256  -5.92627  -1.09146
 Alpha  occ. eigenvalues --   -1.00869  -0.88405  -0.81164  -0.76804  -0.73350
 Alpha  occ. eigenvalues --   -0.64031  -0.63357  -0.60900  -0.56826  -0.50241
 Alpha  occ. eigenvalues --   -0.48927  -0.46786  -0.45534  -0.44969  -0.43886
 Alpha  occ. eigenvalues --   -0.41895  -0.40167  -0.38141  -0.37377  -0.36093
 Alpha  occ. eigenvalues --   -0.32844  -0.31473  -0.28487  -0.27857  -0.24055
 Alpha virt. eigenvalues --   -0.05963  -0.03670  -0.00184   0.03312   0.04233
 Alpha virt. eigenvalues --    0.05852   0.08841   0.09628   0.13591   0.14236
 Alpha virt. eigenvalues --    0.14885   0.20977   0.24072   0.25474   0.26428
 Alpha virt. eigenvalues --    0.27660   0.29397   0.31853   0.34638   0.37114
 Alpha virt. eigenvalues --    0.37495   0.39330   0.40172   0.41421   0.44008
 Alpha virt. eigenvalues --    0.45056   0.46238   0.47193   0.49403   0.50619
 Alpha virt. eigenvalues --    0.51246   0.54531   0.55103   0.55491   0.56977
 Alpha virt. eigenvalues --    0.60354   0.61110   0.62553   0.63025   0.64557
 Alpha virt. eigenvalues --    0.64987   0.66241   0.66358   0.67284   0.69577
 Alpha virt. eigenvalues --    0.69684   0.71048   0.71894   0.74328   0.75918
 Alpha virt. eigenvalues --    0.79172   0.79889   0.82262   0.83597   0.90323
 Alpha virt. eigenvalues --    0.95061   0.96285   1.02030   1.02985   1.04334
 Alpha virt. eigenvalues --    1.06423   1.10092   1.12662   1.16145   1.17839
 Alpha virt. eigenvalues --    1.20740   1.21799   1.22157   1.24513   1.25912
 Alpha virt. eigenvalues --    1.28040   1.30145   1.33899   1.37311   1.43760
 Alpha virt. eigenvalues --    1.47421   1.48517   1.52857   1.54954   1.59687
 Alpha virt. eigenvalues --    1.61894   1.66990   1.68589   1.70502   1.71141
 Alpha virt. eigenvalues --    1.71568   1.72513   1.72933   1.76236   1.80080
 Alpha virt. eigenvalues --    1.81429   1.84863   1.90055   1.91731   1.95065
 Alpha virt. eigenvalues --    1.95253   1.96341   2.01781   2.04085   2.09922
 Alpha virt. eigenvalues --    2.11319   2.13677   2.18495   2.19867   2.23310
 Alpha virt. eigenvalues --    2.25077   2.26579   2.28752   2.31907   2.32243
 Alpha virt. eigenvalues --    2.36417   2.46839   2.47796   2.58902   2.60390
 Alpha virt. eigenvalues --    2.61248   2.64952   2.69287   2.71158   2.74544
 Alpha virt. eigenvalues --    2.82875   2.84226   2.85527   2.91490   2.95955
 Alpha virt. eigenvalues --    2.98515   3.09667   3.17096   3.19501   3.33791
 Alpha virt. eigenvalues --    3.41820   3.54438   3.66812   3.81221
          Condensed to atoms (all electrons):
               1          2          3          4          5          6
     1  S   15.513708  -0.000000  -0.000000   0.001200   0.003589   0.001550
     2  O   -0.000000   7.638972  -0.072976  -0.140869   0.001988   0.005156
     3  O   -0.000000  -0.072976   7.596829  -0.142402   0.001679   0.013123
     4  C    0.001200  -0.140869  -0.142402   5.967220   0.180684   0.229320
     5  C    0.003589   0.001988   0.001679   0.180684   5.141724   0.042706
     6  C    0.001550   0.005156   0.013123   0.229320   0.042706   5.026868
     7  C    0.291108  -0.000040  -0.000046  -0.178833   0.090192   0.121652
     8  C   -0.052278   0.000711  -0.000025   0.062858   0.363301  -0.107682
     9  C   -0.078779  -0.000028   0.001470   0.093457  -0.124483   0.285843
    10  C    0.000014   0.410476   0.768387   0.119044  -0.063826  -0.036779
    11  H   -0.000164   0.004848  -0.000031  -0.101273   0.420844   0.014740
    12  H   -0.000153   0.000632   0.017038  -0.080617   0.015809   0.452209
    13  H   -0.009543   0.000001   0.000002   0.017049  -0.055785  -0.001525
    14  H   -0.004497   0.000001  -0.000010   0.015675  -0.001627  -0.059037
    15  H    0.293878   0.000000   0.000000  -0.000042   0.000407  -0.000122
    16  H   -0.000000   0.314445   0.004157   0.000103   0.002918  -0.000373
               7          8          9         10         11         12
     1  S    0.291108  -0.052278  -0.078779   0.000014  -0.000164  -0.000153
     2  O   -0.000040   0.000711  -0.000028   0.410476   0.004848   0.000632
     3  O   -0.000046  -0.000025   0.001470   0.768387  -0.000031   0.017038
     4  C   -0.178833   0.062858   0.093457   0.119044  -0.101273  -0.080617
     5  C    0.090192   0.363301  -0.124483  -0.063826   0.420844   0.015809
     6  C    0.121652  -0.107682   0.285843  -0.036779   0.014740   0.452209
     7  C    5.367663   0.285031   0.210056  -0.000662   0.016749   0.015311
     8  C    0.285031   4.969047   0.069222   0.009343  -0.038689  -0.001650
     9  C    0.210056   0.069222   5.117149   0.016073  -0.001580  -0.074749
    10  C   -0.000662   0.009343   0.016073   4.631557  -0.010865  -0.012930
    11  H    0.016749  -0.038689  -0.001580  -0.010865   0.730538  -0.000219
    12  H    0.015311  -0.001650  -0.074749  -0.012930  -0.000219   0.673053
    13  H   -0.078075   0.429912   0.014043  -0.000203  -0.015912   0.000022
    14  H   -0.082322   0.014072   0.438844  -0.000290   0.000036  -0.012419
    15  H   -0.011700  -0.009575   0.006287  -0.000001  -0.000019   0.000006
    16  H    0.000047  -0.000765  -0.000151  -0.011126   0.004253  -0.000203
              13         14         15         16
     1  S   -0.009543  -0.004497   0.293878  -0.000000
     2  O    0.000001   0.000001   0.000000   0.314445
     3  O    0.000002  -0.000010   0.000000   0.004157
     4  C    0.017049   0.015675  -0.000042   0.000103
     5  C   -0.055785  -0.001627   0.000407   0.002918
     6  C   -0.001525  -0.059037  -0.000122  -0.000373
     7  C   -0.078075  -0.082322  -0.011700   0.000047
     8  C    0.429912   0.014072  -0.009575  -0.000765
     9  C    0.014043   0.438844   0.006287  -0.000151
    10  C   -0.000203  -0.000290  -0.000001  -0.011126
    11  H   -0.015912   0.000036  -0.000019   0.004253
    12  H    0.000022  -0.012419   0.000006  -0.000203
    13  H    0.713854  -0.000294   0.008015   0.000012
    14  H   -0.000294   0.698938  -0.000066   0.000001
    15  H    0.008015  -0.000066   0.650432  -0.000000
    16  H    0.000012   0.000001  -0.000000   0.515875
 Mulliken charges:
               1
     1  S    0.040366
     2  O   -0.163318
     3  O   -0.187194
     4  C   -0.042573
     5  C   -0.020120
     6  C    0.012352
     7  C   -0.046131
     8  C    0.007168
     9  C    0.027326
    10  C    0.181788
    11  H   -0.023257
    12  H    0.008861
    13  H   -0.021570
    14  H   -0.007004
    15  H    0.062501
    16  H    0.170806
 Sum of Mulliken charges =  -0.00000
 Mulliken charges with hydrogens summed into heavy atoms:
               1
     1  S    0.102867
     2  O    0.007488
     3  O   -0.187194
     4  C   -0.042573
     5  C   -0.043376
     6  C    0.021213
     7  C   -0.046131
     8  C   -0.014402
     9  C    0.020322
    10  C    0.181788
 APT charges:
               1
     1  S   -0.195525
     2  O   -0.734411
     3  O   -0.779407
     4  C   -0.350532
     5  C    0.084581
     6  C    0.088162
     7  C    0.367768
     8  C   -0.200022
     9  C   -0.169728
    10  C    1.352736
    11  H    0.027075
    12  H    0.079134
    13  H    0.034098
    14  H    0.050080
    15  H    0.039749
    16  H    0.306241
 Sum of APT charges =   0.00000
 APT charges with hydrogens summed into heavy atoms:
               1
     1  S   -0.155776
     2  O   -0.428170
     3  O   -0.779407
     4  C   -0.350532
     5  C    0.111656
     6  C    0.167296
     7  C    0.367768
     8  C   -0.165924
     9  C   -0.119648
    10  C    1.352736
 Electronic spatial extent (au):  <R**2>=           2114.8738
 Charge=              0.0000 electrons
 Dipole moment (field-independent basis, Debye):
    X=              4.5587    Y=              1.8234    Z=              0.9909  Tot=              5.0089
 Quadrupole moment (field-independent basis, Debye-Ang):
   XX=            -65.1551   YY=            -69.8990   ZZ=            -66.8074
   XY=             -9.9715   XZ=             -0.9844   YZ=             -2.5873
 Traceless Quadrupole moment (field-independent basis, Debye-Ang):
   XX=              2.1321   YY=             -2.6118   ZZ=              0.4797
   XY=             -9.9715   XZ=             -0.9844   YZ=             -2.5873
 Octapole moment (field-independent basis, Debye-Ang**2):
  XXX=             53.8215  YYY=            -33.2471  ZZZ=              8.5290  XYY=             33.0655
  XXY=             20.9284  XXZ=              6.9855  XZZ=              0.5795  YZZ=            -24.5061
  YYZ=              7.8431  XYZ=              1.7282
 Hexadecapole moment (field-independent basis, Debye-Ang**3):
 XXXX=           -850.3936 YYYY=          -1884.5511 ZZZZ=            -81.6969 XXXY=           -398.4150
 XXXZ=            -24.8427 YYYX=           -462.1553 YYYZ=              8.4754 ZZZX=            -10.2353
 ZZZY=             20.4533 XXYY=           -447.8850 XXZZ=           -162.4891 YYZZ=           -317.6926
 XXYZ=             -2.6519 YYXZ=             -1.6547 ZZXY=           -132.5045
 N-N= 5.472515424024D+02 E-N=-3.020268766187D+03  KE= 8.136358536355D+02
  Exact polarizability: 113.292  24.320 131.751   4.119  -2.720  43.575
 Approx polarizability: 198.689  29.902 208.755  10.031  -4.104  69.390
 No NMR shielding tensors so no spin-rotation constants.
 Leave Link  601 at Thu Jun  6 11:42:41 2019, MaxMem= 16106127360 cpu:        10.6
 (Enter /home/mmm0534/bin/g09E/l607.exe)
 ******************************Gaussian NBO Version 3.1******************************
             N A T U R A L   A T O M I C   O R B I T A L   A N D
          N A T U R A L   B O N D   O R B I T A L   A N A L Y S I S
 ******************************Gaussian NBO Version 3.1******************************
       /RESON  / : Allow strongly delocalized NBO set

 Analyzing the SCF density

 Job title: comment                                                         

 Storage needed:     91786 in NPA,    121900 in NBO (********** available)


 NATURAL POPULATIONS:  Natural atomic orbital occupancies 
                                                          
   NAO  Atom  No  lang   Type(AO)    Occupancy      Energy
 ----------------------------------------------------------
     1    S    1  S      Cor( 1S)     1.99999     -88.23349
     2    S    1  S      Cor( 2S)     1.99933      -8.36593
     3    S    1  S      Val( 3S)     1.67736      -0.73304
     4    S    1  S      Ryd( 4S)     0.00433       0.54365
     5    S    1  px     Cor( 2p)     1.99988      -5.92944
     6    S    1  px     Val( 3p)     1.08816      -0.20297
     7    S    1  px     Ryd( 4p)     0.00385       0.77206
     8    S    1  py     Cor( 2p)     1.99988      -5.92669
     9    S    1  py     Val( 3p)     1.30153      -0.22094
    10    S    1  py     Ryd( 4p)     0.00177       0.72260
    11    S    1  pz     Cor( 2p)     1.99998      -5.92169
    12    S    1  pz     Val( 3p)     1.86483      -0.26461
    13    S    1  pz     Ryd( 4p)     0.00295       0.70954
    14    S    1  dxy    Ryd( 3d)     0.00459       1.09701
    15    S    1  dxz    Ryd( 3d)     0.00078       0.71316
    16    S    1  dyz    Ryd( 3d)     0.00307       0.74973
    17    S    1  dx2y2  Ryd( 3d)     0.00499       1.06448
    18    S    1  dz2    Ryd( 3d)     0.00261       0.97247

    19    O    2  S      Cor( 1S)     1.99969     -18.99202
    20    O    2  S      Val( 2S)     1.66840      -0.89213
    21    O    2  S      Ryd( 3S)     0.00175       1.46986
    22    O    2  px     Val( 2p)     1.55036      -0.32009
    23    O    2  px     Ryd( 3p)     0.00202       1.23422
    24    O    2  py     Val( 2p)     1.71024      -0.35437
    25    O    2  py     Ryd( 3p)     0.00122       1.07627
    26    O    2  pz     Val( 2p)     1.75127      -0.33041
    27    O    2  pz     Ryd( 3p)     0.00142       1.04178
    28    O    2  dxy    Ryd( 3d)     0.00122       3.05193
    29    O    2  dxz    Ryd( 3d)     0.00037       2.99451
    30    O    2  dyz    Ryd( 3d)     0.00130       2.79103
    31    O    2  dx2y2  Ryd( 3d)     0.00130       3.05221
    32    O    2  dz2    Ryd( 3d)     0.00052       2.86517

    33    O    3  S      Cor( 1S)     1.99972     -18.86628
    34    O    3  S      Val( 2S)     1.69187      -0.85360
    35    O    3  S      Ryd( 3S)     0.00164       1.47615
    36    O    3  px     Val( 2p)     1.59518      -0.30728
    37    O    3  px     Ryd( 3p)     0.00084       1.04611
    38    O    3  py     Val( 2p)     1.82435      -0.25270
    39    O    3  py     Ryd( 3p)     0.00210       1.19281
    40    O    3  pz     Val( 2p)     1.45760      -0.24681
    41    O    3  pz     Ryd( 3p)     0.00073       1.06577
    42    O    3  dxy    Ryd( 3d)     0.00155       2.95080
    43    O    3  dxz    Ryd( 3d)     0.00176       2.99909
    44    O    3  dyz    Ryd( 3d)     0.00015       2.68332
    45    O    3  dx2y2  Ryd( 3d)     0.00118       3.20173
    46    O    3  dz2    Ryd( 3d)     0.00064       2.84231

    47    C    4  S      Cor( 1S)     1.99877     -10.08485
    48    C    4  S      Val( 2S)     0.89347      -0.14259
    49    C    4  S      Ryd( 3S)     0.00290       0.53568
    50    C    4  px     Val( 2p)     1.10626      -0.08841
    51    C    4  px     Ryd( 3p)     0.00534       0.97360
    52    C    4  py     Val( 2p)     1.12058      -0.10345
    53    C    4  py     Ryd( 3p)     0.00518       0.99115
    54    C    4  pz     Val( 2p)     1.06316      -0.12853
    55    C    4  pz     Ryd( 3p)     0.00142       0.62095
    56    C    4  dxy    Ryd( 3d)     0.00083       2.41153
    57    C    4  dxz    Ryd( 3d)     0.00055       1.90375
    58    C    4  dyz    Ryd( 3d)     0.00037       1.88012
    59    C    4  dx2y2  Ryd( 3d)     0.00079       2.42795
    60    C    4  dz2    Ryd( 3d)     0.00042       2.17585

    61    C    5  S      Cor( 1S)     1.99892     -10.09269
    62    C    5  S      Val( 2S)     0.93017      -0.15982
    63    C    5  S      Ryd( 3S)     0.00130       0.54246
    64    C    5  px     Val( 2p)     1.10324      -0.07414
    65    C    5  px     Ryd( 3p)     0.00412       0.74774
    66    C    5  py     Val( 2p)     1.16144      -0.09103
    67    C    5  py     Ryd( 3p)     0.00600       0.91688
    68    C    5  pz     Val( 2p)     0.99118      -0.13637
    69    C    5  pz     Ryd( 3p)     0.00097       0.54000
    70    C    5  dxy    Ryd( 3d)     0.00073       2.50071
    71    C    5  dxz    Ryd( 3d)     0.00058       1.91790
    72    C    5  dyz    Ryd( 3d)     0.00043       1.88401
    73    C    5  dx2y2  Ryd( 3d)     0.00069       2.41409
    74    C    5  dz2    Ryd( 3d)     0.00041       2.19374

    75    C    6  S      Cor( 1S)     1.99893     -10.08071
    76    C    6  S      Val( 2S)     0.93755      -0.14868
    77    C    6  S      Ryd( 3S)     0.00155       0.55157
    78    C    6  px     Val( 2p)     1.20864      -0.07942
    79    C    6  px     Ryd( 3p)     0.00710       1.01616
    80    C    6  py     Val( 2p)     1.05897      -0.05378
    81    C    6  py     Ryd( 3p)     0.00415       0.67235
    82    C    6  pz     Val( 2p)     0.93625      -0.11983
    83    C    6  pz     Ryd( 3p)     0.00079       0.54521
    84    C    6  dxy    Ryd( 3d)     0.00072       2.42324
    85    C    6  dxz    Ryd( 3d)     0.00038       1.90303
    86    C    6  dyz    Ryd( 3d)     0.00063       1.92597
    87    C    6  dx2y2  Ryd( 3d)     0.00070       2.51799
    88    C    6  dz2    Ryd( 3d)     0.00040       2.20575

    89    C    7  S      Cor( 1S)     1.99882     -10.12486
    90    C    7  S      Val( 2S)     0.92671      -0.21294
    91    C    7  S      Ryd( 3S)     0.00194       0.51819
    92    C    7  px     Val( 2p)     1.10202      -0.12153
    93    C    7  px     Ryd( 3p)     0.00408       0.74417
    94    C    7  py     Val( 2p)     1.06924      -0.15729
    95    C    7  py     Ryd( 3p)     0.00662       0.93393
    96    C    7  pz     Val( 2p)     1.02890      -0.15359
    97    C    7  pz     Ryd( 3p)     0.00115       0.57409
    98    C    7  dxy    Ryd( 3d)     0.00161       2.25092
    99    C    7  dxz    Ryd( 3d)     0.00077       1.85400
   100    C    7  dyz    Ryd( 3d)     0.00110       1.80469
   101    C    7  dx2y2  Ryd( 3d)     0.00127       2.32542
   102    C    7  dz2    Ryd( 3d)     0.00074       2.11869

   103    C    8  S      Cor( 1S)     1.99884     -10.08562
   104    C    8  S      Val( 2S)     0.92985      -0.16033
   105    C    8  S      Ryd( 3S)     0.00160       0.53077
   106    C    8  px     Val( 2p)     1.19395      -0.09065
   107    C    8  px     Ryd( 3p)     0.00714       0.99168
   108    C    8  py     Val( 2p)     1.06948      -0.07307
   109    C    8  py     Ryd( 3p)     0.00393       0.63269
   110    C    8  pz     Val( 2p)     1.02689      -0.13296
   111    C    8  pz     Ryd( 3p)     0.00105       0.53217
   112    C    8  dxy    Ryd( 3d)     0.00067       2.39912
   113    C    8  dxz    Ryd( 3d)     0.00036       1.88588
   114    C    8  dyz    Ryd( 3d)     0.00049       1.91320
   115    C    8  dx2y2  Ryd( 3d)     0.00067       2.48952
   116    C    8  dz2    Ryd( 3d)     0.00041       2.19803

   117    C    9  S      Cor( 1S)     1.99886     -10.08136
   118    C    9  S      Val( 2S)     0.93213      -0.15648
   119    C    9  S      Ryd( 3S)     0.00145       0.53797
   120    C    9  px     Val( 2p)     1.09426      -0.07395
   121    C    9  px     Ryd( 3p)     0.00427       0.71812
   122    C    9  py     Val( 2p)     1.17525      -0.07977
   123    C    9  py     Ryd( 3p)     0.00753       0.91025
   124    C    9  pz     Val( 2p)     1.01134      -0.12759
   125    C    9  pz     Ryd( 3p)     0.00100       0.53859
   126    C    9  dxy    Ryd( 3d)     0.00060       2.47533
   127    C    9  dxz    Ryd( 3d)     0.00042       1.90984
   128    C    9  dyz    Ryd( 3d)     0.00046       1.89744
   129    C    9  dx2y2  Ryd( 3d)     0.00077       2.42106
   130    C    9  dz2    Ryd( 3d)     0.00041       2.20182

   131    C   10  S      Cor( 1S)     1.99919     -10.21096
   132    C   10  S      Val( 2S)     0.73392      -0.12059
   133    C   10  S      Ryd( 3S)     0.00466       0.50927
   134    C   10  px     Val( 2p)     0.77113      -0.00003
   135    C   10  px     Ryd( 3p)     0.01851       0.59610
   136    C   10  py     Val( 2p)     0.81949      -0.03764
   137    C   10  py     Ryd( 3p)     0.01052       0.61495
   138    C   10  pz     Val( 2p)     0.78309      -0.11493
   139    C   10  pz     Ryd( 3p)     0.00239       0.51736
   140    C   10  dxy    Ryd( 3d)     0.00555       2.30120
   141    C   10  dxz    Ryd( 3d)     0.00327       2.02783
   142    C   10  dyz    Ryd( 3d)     0.00187       1.91439
   143    C   10  dx2y2  Ryd( 3d)     0.00270       2.35447
   144    C   10  dz2    Ryd( 3d)     0.00179       2.05365

   145    H   11  S      Val( 1S)     0.77991       0.03686
   146    H   11  S      Ryd( 2S)     0.00237       0.32305
   147    H   11  px     Ryd( 2p)     0.00035       2.06452
   148    H   11  py     Ryd( 2p)     0.00059       2.24799
   149    H   11  pz     Ryd( 2p)     0.00023       1.62387

   150    H   12  S      Val( 1S)     0.74593       0.08210
   151    H   12  S      Ryd( 2S)     0.00282       0.33574
   152    H   12  px     Ryd( 2p)     0.00084       2.38359
   153    H   12  py     Ryd( 2p)     0.00011       1.98842
   154    H   12  pz     Ryd( 2p)     0.00015       1.65454

   155    H   13  S      Val( 1S)     0.76943       0.05050
   156    H   13  S      Ryd( 2S)     0.00139       0.31935
   157    H   13  px     Ryd( 2p)     0.00080       2.35892
   158    H   13  py     Ryd( 2p)     0.00011       1.96224
   159    H   13  pz     Ryd( 2p)     0.00021       1.62956

   160    H   14  S      Val( 1S)     0.76220       0.06250
   161    H   14  S      Ryd( 2S)     0.00180       0.31602
   162    H   14  px     Ryd( 2p)     0.00029       2.06149
   163    H   14  py     Ryd( 2p)     0.00064       2.26373
   164    H   14  pz     Ryd( 2p)     0.00018       1.63664

   165    H   15  S      Val( 1S)     0.84444      -0.13648
   166    H   15  S      Ryd( 2S)     0.00115       0.36404
   167    H   15  px     Ryd( 2p)     0.00290       1.93615
   168    H   15  py     Ryd( 2p)     0.00082       1.58122
   169    H   15  pz     Ryd( 2p)     0.00097       1.43810

   170    H   16  S      Val( 1S)     0.51887       0.07266
   171    H   16  S      Ryd( 2S)     0.00125       0.41732
   172    H   16  px     Ryd( 2p)     0.00212       2.27752
   173    H   16  py     Ryd( 2p)     0.00116       1.79200
   174    H   16  pz     Ryd( 2p)     0.00153       1.77430

 WARNING:  1 low occupancy (<1.9990e) core orbital  found on  C    4
           1 low occupancy (<1.9990e) core orbital  found on  C    5
           1 low occupancy (<1.9990e) core orbital  found on  C    6
           1 low occupancy (<1.9990e) core orbital  found on  C    7
           1 low occupancy (<1.9990e) core orbital  found on  C    8
           1 low occupancy (<1.9990e) core orbital  found on  C    9


 Summary of Natural Population Analysis:                  
                                                          
                                       Natural Population 
                Natural  -----------------------------------------------
    Atom  No    Charge         Core      Valence    Rydberg      Total
 -----------------------------------------------------------------------
      S    1    0.04011      9.99907     5.93188    0.02895    15.95989
      O    2   -0.69109      1.99969     6.68027    0.01113     8.69109
      O    3   -0.57932      1.99972     6.56899    0.01061     8.57932
      C    4   -0.20007      1.99877     4.18348    0.01781     6.20007
      C    5   -0.20020      1.99892     4.18602    0.01525     6.20020
      C    6   -0.15677      1.99893     4.14142    0.01643     6.15677
      C    7   -0.14497      1.99882     4.12687    0.01927     6.14497
      C    8   -0.23533      1.99884     4.22017    0.01631     6.23533
      C    9   -0.22875      1.99886     4.21298    0.01692     6.22875
      C   10    0.84191      1.99919     3.10763    0.05127     5.15809
      H   11    0.21655      0.00000     0.77991    0.00354     0.78345
      H   12    0.25015      0.00000     0.74593    0.00392     0.74985
      H   13    0.22806      0.00000     0.76943    0.00250     0.77194
      H   14    0.23490      0.00000     0.76220    0.00290     0.76510
      H   15    0.14973      0.00000     0.84444    0.00583     0.85027
      H   16    0.47508      0.00000     0.51887    0.00605     0.52492
 =======================================================================
   * Total *    0.00000     27.99081    51.78050    0.22870    80.00000

                                 Natural Population      
 --------------------------------------------------------
   Core                      27.99081 ( 99.9672% of  28)
   Valence                   51.78050 ( 99.5779% of  52)
   Natural Minimal Basis     79.77130 ( 99.7141% of  80)
   Natural Rydberg Basis      0.22870 (  0.2859% of  80)
 --------------------------------------------------------

    Atom  No          Natural Electron Configuration
 ----------------------------------------------------------------------------
      S    1      [core]3S( 1.68)3p( 4.25)3d( 0.02)4p( 0.01)
      O    2      [core]2S( 1.67)2p( 5.01)
      O    3      [core]2S( 1.69)2p( 4.88)3d( 0.01)
      C    4      [core]2S( 0.89)2p( 3.29)3p( 0.01)
      C    5      [core]2S( 0.93)2p( 3.26)3p( 0.01)
      C    6      [core]2S( 0.94)2p( 3.20)3p( 0.01)
      C    7      [core]2S( 0.93)2p( 3.20)3p( 0.01)3d( 0.01)
      C    8      [core]2S( 0.93)2p( 3.29)3p( 0.01)
      C    9      [core]2S( 0.93)2p( 3.28)3p( 0.01)
      C   10      [core]2S( 0.73)2p( 2.37)3p( 0.03)3d( 0.02)
      H   11            1S( 0.78)
      H   12            1S( 0.75)
      H   13            1S( 0.77)
      H   14            1S( 0.76)
      H   15            1S( 0.84)
      H   16            1S( 0.52)


 NATURAL BOND ORBITAL ANALYSIS:

                       Occupancies       Lewis Structure    Low   High
           Occ.    -------------------  -----------------   occ   occ
  Cycle   Thresh.   Lewis   Non-Lewis     CR  BD  3C  LP    (L)   (NL)   Dev
 =============================================================================
   1(1)    1.90    76.11131   3.88869     14  19   0   7     6      5    0.47
   2(2)    1.90    76.11131   3.88869     14  19   0   7     6      5    0.47
   3(1)    1.80    76.24089   3.75911     14  17   0   9     3      4    0.47
   4(2)    1.80    76.24089   3.75911     14  17   0   9     3      4    0.47
   5(1)    1.70    76.24089   3.75911     14  17   0   9     3      4    0.47
   6(2)    1.70    76.24089   3.75911     14  17   0   9     3      4    0.47
   7(1)    1.60    78.10664   1.89336     14  20   0   6     0      4    0.44
   8(2)    1.60    78.06661   1.93339     14  20   0   6     0      4    0.47
   9(3)    1.60    77.54150   2.45850     14  19   0   7     1      4    0.38
  10(4)    1.60    78.10664   1.89336     14  20   0   6     0      4    0.44
  11(5)    1.60    78.06661   1.93339     14  20   0   6     0      4    0.47
  12(6)    1.60    77.54150   2.45850     14  19   0   7     1      4    0.38
  13(7)    1.60    78.10664   1.89336     14  20   0   6     0      4    0.44
  14(8)    1.60    78.06661   1.93339     14  20   0   6     0      4    0.47
  15(9)    1.60    77.54150   2.45850     14  19   0   7     1      4    0.38
  16(1)    1.50    78.10664   1.89336     14  20   0   6     0      4    0.44
  17(2)    1.50    78.06661   1.93339     14  20   0   6     0      4    0.47
  18(3)    1.50    77.54150   2.45850     14  19   0   7     1      4    0.38
  19(4)    1.50    78.10664   1.89336     14  20   0   6     0      4    0.44
  20(5)    1.50    78.06661   1.93339     14  20   0   6     0      4    0.47
  21(6)    1.50    77.54150   2.45850     14  19   0   7     1      4    0.38
  22(7)    1.50    78.10664   1.89336     14  20   0   6     0      4    0.44
  23(8)    1.50    78.06661   1.93339     14  20   0   6     0      4    0.47
  24(9)    1.50    77.54150   2.45850     14  19   0   7     1      4    0.38
  25(1)    1.60    78.10664   1.89336     14  20   0   6     0      4    0.44
 -----------------------------------------------------------------------------

 Structure accepted: RESONANCE keyword permits strongly delocalized structure

 WARNING:  1 low occupancy (<1.9990e) core orbital  found on  C    4
           1 low occupancy (<1.9990e) core orbital  found on  C    5
           1 low occupancy (<1.9990e) core orbital  found on  C    6
           1 low occupancy (<1.9990e) core orbital  found on  C    7
           1 low occupancy (<1.9990e) core orbital  found on  C    8
           1 low occupancy (<1.9990e) core orbital  found on  C    9

 --------------------------------------------------------
   Core                     27.99083 ( 99.967% of  28)
   Valence Lewis            50.11581 ( 96.377% of  52)
  ==================       ============================
   Total Lewis              78.10664 ( 97.633% of  80)
  -----------------------------------------------------
   Valence non-Lewis         1.73982 (  2.175% of  80)
   Rydberg non-Lewis         0.15353 (  0.192% of  80)
  ==================       ============================
   Total non-Lewis           1.89336 (  2.367% of  80)
 --------------------------------------------------------


       (Occupancy)   Bond orbital/ Coefficients/ Hybrids
 ---------------------------------------------------------------------------------
     1. (1.98314) BD ( 1) S   1 - C   7  
                ( 47.27%)   0.6875* S   1 s( 20.17%)p 3.93( 79.26%)d 0.03(  0.57%)
                                           -0.0000 -0.0003 -0.4458  0.0538 -0.0001
                                            0.4223  0.0348 -0.0002  0.7824  0.0313
                                            0.0000 -0.0035  0.0002 -0.0458  0.0005
                                            0.0008  0.0484  0.0352
                ( 52.73%)   0.7262* C   7 s( 25.12%)p 2.97( 74.72%)d 0.01(  0.16%)
                                            0.0002 -0.5012  0.0031 -0.4237  0.0158
                                           -0.7530  0.0188  0.0044 -0.0001 -0.0284
                                            0.0002  0.0003  0.0194  0.0201
     2. (1.98981) BD ( 1) S   1 - H  15  
                ( 57.55%)   0.7586* S   1 s( 14.76%)p 5.74( 84.77%)d 0.03(  0.47%)
                                           -0.0000 -0.0001  0.3836 -0.0203  0.0000
                                            0.8811  0.0437 -0.0000 -0.2620  0.0211
                                            0.0000  0.0216  0.0005 -0.0456  0.0026
                                           -0.0011  0.0402 -0.0311
                ( 42.45%)   0.6515* H  15 s( 99.61%)p 0.00(  0.39%)
                                            0.9981 -0.0021 -0.0579  0.0224 -0.0015
     3. (1.99540) BD ( 1) O   2 - C  10  
                ( 69.35%)   0.8328* O   2 s( 36.02%)p 1.77( 63.91%)d 0.00(  0.07%)
                                           -0.0000  0.6002 -0.0024 -0.3673 -0.0085
                                            0.6689 -0.0014 -0.2381 -0.0033 -0.0101
                                            0.0038 -0.0091 -0.0185 -0.0120
                ( 30.65%)   0.5536* C  10 s( 26.80%)p 2.72( 72.86%)d 0.01(  0.33%)
                                           -0.0001  0.5176 -0.0094  0.3569 -0.0092
                                           -0.7317 -0.0518  0.2511  0.0085 -0.0416
                                            0.0147 -0.0244 -0.0206 -0.0192
     4. (1.98509) BD ( 1) O   2 - H  16  
                ( 74.16%)   0.8612* O   2 s( 22.09%)p 3.52( 77.83%)d 0.00(  0.08%)
                                            0.0002  0.4697  0.0144  0.7915  0.0288
                                            0.1425 -0.0179  0.3608  0.0167  0.0194
                                            0.0125  0.0082  0.0106 -0.0097
                ( 25.84%)   0.5083* H  16 s( 99.57%)p 0.00(  0.43%)
                                            0.9979 -0.0042 -0.0585 -0.0075 -0.0278
     5. (1.99387) BD ( 1) O   3 - C  10  
                ( 66.46%)   0.8152* O   3 s( 43.28%)p 1.31( 56.63%)d 0.00(  0.09%)
                                           -0.0001  0.6574 -0.0249  0.6700  0.0229
                                            0.0459 -0.0009  0.3386  0.0080  0.0020
                                            0.0176  0.0016  0.0226 -0.0075
                ( 33.54%)   0.5792* C  10 s( 32.29%)p 2.09( 67.47%)d 0.01(  0.24%)
                                           -0.0001  0.5673 -0.0326 -0.8137 -0.0531
                                           -0.0237 -0.0295 -0.0895 -0.0176  0.0017
                                            0.0144  0.0013  0.0408 -0.0221
     6. (1.98110) BD ( 2) O   3 - C  10  
                ( 68.13%)   0.8254* O   3 s(  0.81%)p99.99( 99.05%)d 0.18(  0.15%)
                                            0.0000 -0.0898  0.0045 -0.3795 -0.0048
                                            0.1923  0.0003  0.8997  0.0049  0.0065
                                            0.0294  0.0037 -0.0140  0.0185
                ( 31.87%)   0.5645* C  10 s(  0.68%)p99.99( 98.93%)d 0.58(  0.39%)
                                            0.0000 -0.0817  0.0094 -0.1688  0.0188
                                            0.1893 -0.0025  0.9612 -0.0274 -0.0128
                                           -0.0540 -0.0037  0.0110 -0.0265
     7. (1.97193) BD ( 1) C   4 - C   5  
                ( 50.56%)   0.7110* C   4 s( 35.19%)p 1.84( 64.77%)d 0.00(  0.04%)
                                           -0.0001  0.5931  0.0081  0.8030  0.0049
                                           -0.0311 -0.0171  0.0398 -0.0015 -0.0005
                                            0.0017 -0.0000  0.0156 -0.0121
                ( 49.44%)   0.7031* C   5 s( 35.83%)p 1.79( 64.12%)d 0.00(  0.04%)
                                            0.0001  0.5986  0.0037 -0.7994 -0.0024
                                           -0.0399 -0.0213  0.0128 -0.0020  0.0007
                                           -0.0004 -0.0003  0.0169 -0.0126
     8. (1.66289) BD ( 2) C   4 - C   5  
                ( 52.84%)   0.7269* C   4 s(  0.01%)p 1.00( 99.97%)d 0.00(  0.02%)
                                            0.0000 -0.0067 -0.0069 -0.0434 -0.0011
                                            0.0256  0.0029  0.9986  0.0043  0.0002
                                            0.0143  0.0031  0.0002  0.0006
                ( 47.16%)   0.6868* C   5 s(  0.01%)p99.99( 99.94%)d 2.80(  0.04%)
                                           -0.0001 -0.0097 -0.0073  0.0081  0.0029
                                            0.0095  0.0057  0.9996  0.0006 -0.0003
                                           -0.0186  0.0080 -0.0003 -0.0001
     9. (1.96796) BD ( 1) C   4 - C   6  
                ( 51.18%)   0.7154* C   4 s( 34.62%)p 1.89( 65.34%)d 0.00(  0.04%)
                                           -0.0002  0.5884  0.0057 -0.4061 -0.0196
                                            0.6979 -0.0067 -0.0315  0.0010 -0.0126
                                            0.0004 -0.0018 -0.0080 -0.0119
                ( 48.82%)   0.6987* C   6 s( 34.99%)p 1.86( 64.97%)d 0.00(  0.05%)
                                            0.0001  0.5915  0.0062  0.3753 -0.0202
                                           -0.7122 -0.0141  0.0311  0.0001 -0.0155
                                            0.0009 -0.0014 -0.0079 -0.0125
    10. (1.97942) BD ( 1) C   4 - C  10  
                ( 53.45%)   0.7311* C   4 s( 30.14%)p 2.32( 69.82%)d 0.00(  0.04%)
                                           -0.0001  0.5490 -0.0044 -0.4331  0.0047
                                           -0.7145  0.0093  0.0031 -0.0005  0.0150
                                           -0.0009 -0.0003 -0.0084 -0.0115
                ( 46.55%)   0.6823* C  10 s( 39.80%)p 1.51( 60.14%)d 0.00(  0.06%)
                                            0.0003  0.6303  0.0264  0.4212 -0.0177
                                            0.6508 -0.0107 -0.0006 -0.0047  0.0224
                                            0.0003  0.0030 -0.0044 -0.0096
    11. (1.97210) BD ( 1) C   5 - C   8  
                ( 50.13%)   0.7081* C   5 s( 36.38%)p 1.75( 63.58%)d 0.00(  0.04%)
                                            0.0001  0.6030  0.0119  0.4180  0.0356
                                            0.6780 -0.0135 -0.0039  0.0024  0.0140
                                           -0.0001 -0.0002 -0.0094 -0.0120
                ( 49.87%)   0.7062* C   8 s( 36.22%)p 1.76( 63.74%)d 0.00(  0.04%)
                                           -0.0001  0.6017  0.0100 -0.3881  0.0305
                                           -0.6964 -0.0278  0.0055  0.0002  0.0156
                                           -0.0000 -0.0003 -0.0063 -0.0121
    12. (1.97704) BD ( 1) C   5 - H  11  
                ( 61.00%)   0.7810* C   5 s( 27.69%)p 2.61( 72.28%)d 0.00(  0.03%)
                                            0.0003 -0.5260  0.0131 -0.4302 -0.0095
                                            0.7330 -0.0136 -0.0084  0.0057  0.0137
                                            0.0000  0.0006  0.0069  0.0104
                ( 39.00%)   0.6245* H  11 s( 99.91%)p 0.00(  0.09%)
                                           -0.9996  0.0023  0.0175 -0.0240 -0.0033
    13. (1.97392) BD ( 1) C   6 - C   9  
                ( 49.74%)   0.7053* C   6 s( 36.11%)p 1.77( 63.84%)d 0.00(  0.04%)
                                            0.0001  0.6008  0.0131  0.3820 -0.0321
                                            0.7006  0.0250 -0.0024 -0.0020  0.0163
                                            0.0003 -0.0000 -0.0068 -0.0117
                ( 50.26%)   0.7089* C   9 s( 36.46%)p 1.74( 63.49%)d 0.00(  0.04%)
                                           -0.0000  0.6038  0.0056 -0.4143 -0.0386
                                           -0.6794  0.0149  0.0010 -0.0014  0.0136
                                            0.0000 -0.0003 -0.0105 -0.0121
    14. (1.66840) BD ( 2) C   6 - C   9  
                ( 47.30%)   0.6877* C   6 s(  0.00%)p 1.00( 99.94%)d 0.00(  0.06%)
                                            0.0000 -0.0005 -0.0016 -0.0365  0.0006
                                            0.0239  0.0002  0.9988 -0.0032  0.0000
                                            0.0199  0.0127 -0.0007  0.0012
                ( 52.70%)   0.7260* C   9 s(  0.00%)p 1.00( 99.95%)d 0.00(  0.05%)
                                            0.0000  0.0003 -0.0005 -0.0315 -0.0002
                                            0.0209  0.0002  0.9990 -0.0082  0.0007
                                            0.0015 -0.0215  0.0006  0.0009
    15. (1.97664) BD ( 1) C   6 - H  12  
                ( 62.70%)   0.7919* C   6 s( 28.82%)p 2.47( 71.15%)d 0.00(  0.03%)
                                            0.0003 -0.5367  0.0153  0.8429 -0.0086
                                            0.0002 -0.0035  0.0306  0.0009 -0.0006
                                           -0.0007  0.0001 -0.0141  0.0099
                ( 37.30%)   0.6107* H  12 s( 99.90%)p 0.00(  0.10%)
                                           -0.9995  0.0036 -0.0315 -0.0018 -0.0021
    16. (1.97623) BD ( 1) C   7 - C   8  
                ( 51.00%)   0.7141* C   7 s( 38.02%)p 1.63( 61.95%)d 0.00(  0.04%)
                                           -0.0000  0.6166  0.0021  0.4355  0.0251
                                           -0.6547  0.0011  0.0238  0.0005 -0.0133
                                            0.0006 -0.0008 -0.0077 -0.0120
                ( 49.00%)   0.7000* C   8 s( 35.36%)p 1.83( 64.60%)d 0.00(  0.05%)
                                            0.0000  0.5945  0.0121 -0.3628  0.0265
                                            0.7161  0.0229 -0.0150 -0.0001 -0.0150
                                            0.0004 -0.0007 -0.0085 -0.0124
    17. (1.65376) BD ( 2) C   7 - C   8  
                ( 50.06%)   0.7075* C   7 s(  0.00%)p 1.00( 99.97%)d 0.00(  0.02%)
                                            0.0000 -0.0019 -0.0006 -0.0224 -0.0005
                                            0.0196  0.0003  0.9994  0.0110  0.0003
                                            0.0033 -0.0154  0.0004  0.0006
                ( 49.94%)   0.7067* C   8 s(  0.00%)p 1.00( 99.96%)d 0.00(  0.04%)
                                           -0.0000 -0.0003 -0.0015 -0.0127  0.0001
                                            0.0147  0.0001  0.9996 -0.0008 -0.0005
                                           -0.0178  0.0087 -0.0000 -0.0008
    18. (1.97426) BD ( 1) C   7 - C   9  
                ( 51.24%)   0.7159* C   7 s( 36.79%)p 1.72( 63.17%)d 0.00(  0.04%)
                                           -0.0001  0.6065  0.0036 -0.7931 -0.0079
                                            0.0429  0.0217 -0.0175 -0.0006 -0.0009
                                            0.0009 -0.0001  0.0154 -0.0127
                ( 48.76%)   0.6983* C   9 s( 35.03%)p 1.85( 64.92%)d 0.00(  0.05%)
                                            0.0001  0.5917  0.0149  0.8039  0.0076
                                            0.0360  0.0315  0.0244 -0.0004 -0.0007
                                            0.0012 -0.0001  0.0175 -0.0124
    19. (1.97808) BD ( 1) C   8 - H  13  
                ( 61.52%)   0.7843* C   8 s( 28.34%)p 2.53( 71.63%)d 0.00(  0.03%)
                                           -0.0003  0.5321 -0.0162  0.8461 -0.0096
                                           -0.0119 -0.0086  0.0110 -0.0001 -0.0001
                                            0.0002 -0.0002  0.0144 -0.0100
                ( 38.48%)   0.6203* H  13 s( 99.91%)p 0.00(  0.09%)
                                            0.9995 -0.0013 -0.0301  0.0010 -0.0001
    20. (1.97804) BD ( 1) C   9 - H  14  
                ( 61.90%)   0.7867* C   9 s( 28.42%)p 2.52( 71.55%)d 0.00(  0.03%)
                                           -0.0003  0.5329 -0.0157 -0.4233 -0.0040
                                            0.7316 -0.0128 -0.0288  0.0000 -0.0117
                                            0.0005 -0.0008 -0.0077 -0.0100
                ( 38.10%)   0.6173* H  14 s( 99.91%)p 0.00(  0.09%)
                                            0.9995 -0.0024  0.0159 -0.0262  0.0011
    21. (1.99999) CR ( 1) S   1           s(100.00%)
                                            1.0000 -0.0000 -0.0000  0.0000  0.0000
                                            0.0000  0.0000 -0.0000  0.0000  0.0000
                                            0.0000  0.0000  0.0000 -0.0000  0.0000
                                           -0.0000  0.0000  0.0000
    22. (1.99933) CR ( 2) S   1           s(100.00%)p 0.00(  0.00%)
                                           -0.0000  1.0000  0.0001  0.0000 -0.0000
                                            0.0002  0.0000 -0.0000  0.0004  0.0000
                                            0.0000 -0.0000  0.0000 -0.0000  0.0000
                                            0.0000  0.0000  0.0000
    23. (1.99988) CR ( 3) S   1           s(  0.00%)p 1.00(100.00%)
                                            0.0000 -0.0000  0.0001  0.0000  1.0000
                                           -0.0000  0.0000 -0.0000  0.0001 -0.0000
                                            0.0000 -0.0000  0.0000 -0.0000 -0.0000
                                            0.0000  0.0000  0.0000
    24. (1.99988) CR ( 4) S   1           s(  0.00%)p 1.00(100.00%)
                                           -0.0000 -0.0000  0.0001  0.0000 -0.0000
                                            0.0001  0.0000  1.0000  0.0002  0.0000
                                           -0.0000  0.0000 -0.0000 -0.0000  0.0000
                                            0.0000  0.0000  0.0000
    25. (1.99998) CR ( 5) S   1           s(  0.00%)p 1.00(100.00%)
                                            0.0000  0.0000  0.0000  0.0000  0.0000
                                           -0.0000  0.0000 -0.0000  0.0000 -0.0000
                                            1.0000  0.0002 -0.0000  0.0000  0.0000
                                           -0.0000 -0.0000  0.0000
    26. (1.99969) CR ( 1) O   2           s(100.00%)p 0.00(  0.00%)
                                            1.0000 -0.0001 -0.0000 -0.0002 -0.0000
                                            0.0001  0.0000 -0.0001 -0.0000 -0.0000
                                           -0.0000 -0.0000 -0.0000  0.0000
    27. (1.99972) CR ( 1) O   3           s(100.00%)p 0.00(  0.00%)
                                            1.0000 -0.0004 -0.0000  0.0004  0.0000
                                           -0.0001  0.0000  0.0001  0.0000 -0.0000
                                            0.0000 -0.0000  0.0000 -0.0000
    28. (1.99877) CR ( 1) C   4           s(100.00%)
                                            1.0000  0.0002  0.0000 -0.0000 -0.0000
                                            0.0001 -0.0000 -0.0000 -0.0000 -0.0000
                                           -0.0000 -0.0000 -0.0000 -0.0000
    29. (1.99893) CR ( 1) C   5           s(100.00%)p 0.00(  0.00%)
                                            1.0000  0.0001 -0.0000  0.0001  0.0000
                                           -0.0003  0.0000  0.0001 -0.0000 -0.0000
                                           -0.0000  0.0000 -0.0000 -0.0000
    30. (1.99893) CR ( 1) C   6           s(100.00%)p 0.00(  0.00%)
                                            1.0000  0.0000 -0.0000 -0.0003  0.0000
                                            0.0000  0.0000 -0.0000 -0.0000  0.0000
                                           -0.0000 -0.0000  0.0000 -0.0000
    31. (1.99882) CR ( 1) C   7           s(100.00%)p 0.00(  0.00%)
                                            1.0000  0.0002 -0.0000  0.0000 -0.0000
                                            0.0001 -0.0000 -0.0000 -0.0000  0.0000
                                            0.0000  0.0000 -0.0000 -0.0000
    32. (1.99884) CR ( 1) C   8           s(100.00%)p 0.00(  0.00%)
                                            1.0000  0.0002 -0.0000  0.0003 -0.0000
                                           -0.0001 -0.0000  0.0000 -0.0000  0.0000
                                           -0.0000  0.0000  0.0000 -0.0000
    33. (1.99886) CR ( 1) C   9           s(100.00%)p 0.00(  0.00%)
                                            1.0000  0.0001 -0.0000 -0.0002 -0.0000
                                            0.0002 -0.0000 -0.0000  0.0000 -0.0000
                                            0.0000  0.0000 -0.0000 -0.0000
    34. (1.99920) CR ( 1) C  10           s(100.00%)p 0.00(  0.00%)
                                            1.0000 -0.0001 -0.0000 -0.0002 -0.0000
                                           -0.0003 -0.0000 -0.0000  0.0000 -0.0000
                                            0.0000 -0.0000  0.0000 -0.0000
    35. (1.98917) LP ( 1) S   1           s( 65.36%)p 0.53( 34.62%)d 0.00(  0.02%)
                                            0.0000 -0.0002  0.8082  0.0203 -0.0002
                                           -0.1851  0.0053 -0.0001  0.5583 -0.0079
                                           -0.0000 -0.0137  0.0003  0.0047 -0.0002
                                            0.0005  0.0102  0.0093
    36. (1.86870) LP ( 2) S   1           s(  0.00%)p 1.00( 99.92%)d 0.00(  0.08%)
                                           -0.0000  0.0000  0.0012  0.0002  0.0000
                                           -0.0203  0.0007 -0.0000  0.0160 -0.0005
                                           -0.0002  0.9987 -0.0327  0.0008  0.0090
                                           -0.0274  0.0003  0.0011
    37. (1.97472) LP ( 1) O   2           s( 41.70%)p 1.40( 58.26%)d 0.00(  0.05%)
                                            0.0001  0.6457 -0.0028 -0.2625  0.0017
                                           -0.7164  0.0091  0.0190 -0.0012 -0.0126
                                            0.0026 -0.0011  0.0146  0.0087
    38. (1.82473) LP ( 2) O   2           s(  0.19%)p99.99( 99.74%)d 0.41(  0.08%)
                                           -0.0000  0.0433 -0.0014  0.4092 -0.0066
                                           -0.1348  0.0004 -0.9008  0.0138  0.0097
                                           -0.0063 -0.0240  0.0073 -0.0001
    39. (1.97706) LP ( 1) O   3           s( 55.92%)p 0.79( 44.06%)d 0.00(  0.02%)
                                            0.0005  0.7476  0.0147 -0.6362  0.0010
                                           -0.0407 -0.0015 -0.1851  0.0004 -0.0016
                                           -0.0065  0.0002 -0.0096  0.0059
    40. (1.84233) LP ( 2) O   3           s(  0.03%)p99.99( 99.88%)d 2.66(  0.09%)
                                            0.0001  0.0179  0.0036  0.0168 -0.0006
                                            0.9789 -0.0132 -0.2004  0.0013  0.0281
                                           -0.0052  0.0078 -0.0008 -0.0036
    41. (0.00319) RY*( 1) S   1           s(  0.00%)p 1.00( 29.97%)d 2.34( 70.03%)
                                           -0.0000  0.0000  0.0000  0.0026 -0.0000
                                            0.0002  0.0110  0.0000 -0.0001 -0.0083
                                            0.0000 -0.0020 -0.5473 -0.0071  0.4266
                                            0.7195 -0.0231 -0.0041
    42. (0.00213) RY*( 2) S   1           s(  7.46%)p 4.78( 35.64%)d 7.63( 56.90%)
                                            0.0000 -0.0000  0.0032  0.2731 -0.0000
                                            0.0011  0.5064 -0.0000 -0.0100 -0.3154
                                            0.0000  0.0002  0.0180 -0.3340 -0.0118
                                           -0.0160 -0.6689  0.0978
    43. (0.00032) RY*( 3) S   1           s( 40.55%)p 1.32( 53.62%)d 0.14(  5.83%)
                                           -0.0000 -0.0000  0.0196  0.6365 -0.0000
                                           -0.0397  0.2714 -0.0000 -0.0641  0.6759
                                            0.0000 -0.0000 -0.0067  0.0580 -0.0065
                                            0.0064  0.1454  0.1836
    44. (0.00015) RY*( 4) S   1           s( 10.71%)p 1.30( 13.93%)d 7.04( 75.36%)
                                            0.0000  0.0000 -0.0001  0.3272 -0.0000
                                            0.0899 -0.3469  0.0000  0.0236 -0.1013
                                            0.0000  0.0014 -0.0028  0.7311 -0.0165
                                            0.0026 -0.4593 -0.0888
    45. (0.00005) RY*( 5) S   1           s(  0.00%)p 1.00(  0.09%)d99.99( 99.91%)
    46. (0.00003) RY*( 6) S   1           s(  1.16%)p20.13( 23.45%)d64.72( 75.39%)
    47. (0.00001) RY*( 7) S   1           s( 31.92%)p 1.21( 38.63%)d 0.92( 29.45%)
    48. (0.00001) RY*( 8) S   1           s(  7.90%)p 4.57( 36.07%)d 7.09( 56.03%)
    49. (0.00001) RY*( 9) S   1           s(  0.00%)p 1.00( 70.03%)d 0.43( 29.97%)
    50. (0.00169) RY*( 1) O   2           s( 78.38%)p 0.25( 19.20%)d 0.03(  2.41%)
                                            0.0000 -0.0034  0.8853 -0.0113  0.1792
[...]
 .0126234969\H,-1.1942618224,2.5860173161,-0.127690186\H,2.8403499391,2
 .7434652666,-0.0313305507\H,0.0152299531,-2.9632337091,0.7393484465\\V
 ersion=ES64L-G09RevE.01\HF=-818.6251289\RMSD=2.497e-09\RMSF=1.067e-05\
 ZeroPoint=0.1144671\Thermal=0.1235182\Dipole=1.7935372,0.7173934,0.389
 8375\DipoleDeriv=-0.1216777,-0.3709812,0.0058937,-0.3702164,-0.3706886
 ,-0.0029189,0.0044862,-0.0043604,-0.094209,-0.5400784,0.2936059,-0.106
 2544,0.2443661,-1.2337979,0.2953605,-0.0653328,0.2595866,-0.4293565,-1
 .1696542,-0.3176705,-0.2022617,-0.237513,-0.7457392,0.0190086,-0.18892
 7,0.0189538,-0.4228263,-0.313681,-0.2938618,-0.0159756,-0.2801901,-0.6
 810302,0.028325,-0.0146504,0.0403569,-0.0568858,0.1544944,0.1789403,-0
 .0084984,0.0451884,0.1766683,0.0101307,0.0304289,0.0732996,-0.0774207,
 0.0725057,-0.0144074,0.0058429,0.1633642,0.2354671,0.0010063,-0.006624
 1,-0.044518,-0.0434876,0.2898016,0.5595622,-0.0043934,0.5362887,0.8464
 761,-0.0021606,-0.0003712,-0.0007257,-0.0329727,0.0522626,-0.0130861,0
 .0009026,-0.2462895,-0.5427516,-0.0003308,0.0040432,0.0148864,-0.10957
 78,-0.2607945,-0.3595247,0.0058457,-0.2508028,-0.1425121,-0.0041941,0.
 0010056,-0.0128557,-0.1058763,1.5445944,0.2967379,0.3460457,0.2774364,
 2.0287525,-0.2946348,0.306006,-0.2833795,0.4848597,0.0629298,0.0582545
 ,0.0003911,0.0561463,-0.0876974,0.0120513,-0.0043703,-0.0016103,0.1059
 94,0.0219327,0.0140331,0.0004677,-0.0158017,0.1074986,-0.0021502,-0.00
 00925,0.0143833,0.1079715,-0.0664914,-0.0183582,-0.0023957,-0.0327803,
 0.0562534,-0.000266,-0.0021845,-0.0044727,0.1125333,0.0625608,0.031173
 4,-0.001634,0.0495513,-0.0286614,0.0045915,-0.0010323,0.0050263,0.1163
 398,0.0066787,-0.003905,-0.0024338,0.1019979,-0.0255846,0.0047919,-0.0
 036802,0.003436,0.1381543,0.2046165,-0.0405124,-0.0215424,-0.0407454,0
 .4073469,-0.0686105,-0.0587047,-0.0780066,0.3067601\Polar=113.2919576,
 24.3203676,131.7512056,4.1192157,-2.7195304,43.5752662\PolarDeriv=-4.6
 472298,1.612846,-5.8448309,-0.1349191,0.0124302,0.1987756,-0.6380533,-
 3.8062938,5.5048323,0.0922975,-0.0418664,0.0407151,-0.0790363,0.036378
 8,-0.0028782,1.6077863,6.335773,-0.1339731,-1.6118011,0.9931411,1.9752
 872,-1.0383109,0.8522357,-0.8739819,-3.2878776,-4.962776,-15.7620217,-
 0.4883714,1.2358505,-0.8590017,-1.1373252,0.9641849,1.5407662,-0.84486
 8,-2.1363451,0.1461824,-17.9829028,-12.549242,-16.3254174,-1.8267624,-
 0.3793133,-1.3885151,-2.3040599,-4.72638,-3.5523764,-0.5371114,-0.9111
 533,-0.1142017,-2.7965912,-2.4821829,-3.6515846,-3.7358567,-1.4435753,
 -2.1448759,-8.6413645,-10.3364394,-12.6795159,0.0658155,0.1720596,-0.2
 093844,-9.6788076,-15.3576189,-24.2394872,-0.2790983,-0.3306034,-0.250
 3187,0.3736145,0.682167,0.5346315,-2.5181484,-4.4314382,0.2462549,6.50
 5788,9.8800719,11.3524448,0.2658982,-0.0618013,0.1351467,2.7145982,6.4
 511405,7.8981903,-0.1005021,0.2422705,-0.2555798,0.480697,0.6868405,1.
 3253075,1.728367,-1.5881765,0.157469,-0.1620457,1.2116709,0.1148743,0.
 0484888,0.0242666,-0.3429404,3.5821826,9.5642702,16.2795886,-0.0955527
 ,-0.0250934,-0.0041498,-0.473676,-1.1703628,-1.5106244,-2.5480009,0.43
 43659,-0.1511182,4.025926,4.7838251,9.2979444,-0.0334485,-0.1538366,0.
 4941833,7.1317396,10.2398938,17.3304932,-0.0365897,-0.0289875,0.894792
 ,-0.2043147,-0.0748761,0.1105493,1.6940931,2.6395105,-0.0861297,0.4718
 189,1.2049455,3.7990355,-0.0550924,-0.0411499,0.0363042,-4.4980233,-10
 .0842119,-14.1910389,0.1370334,0.0032213,-0.0070697,-0.0024812,0.25816
 09,0.4565151,2.2427434,-1.1977675,0.1687636,-4.764024,-9.3272092,-12.7
 99096,0.12912,-0.0184298,0.0993937,-0.2082813,-2.5609729,-5.139828,0.0
 042867,0.0596186,0.0616536,-0.0371575,-0.425337,-0.2316121,-2.1682953,
 1.5112869,-0.1354071,12.426026,12.8069336,16.7801922,1.1113816,0.56818
 74,1.1699868,7.9556648,12.3549778,17.3268641,0.7974631,-0.149803,0.159
 5045,2.6211636,1.7693637,1.4311779,0.877032,0.571752,0.5229418,2.43259
 87,-2.7886769,3.3727907,-0.0682001,-0.0273423,0.1617309,-1.7644449,2.9
 367159,-7.3308989,0.2389646,-0.0415488,-0.4458013,-0.0296353,0.2295365
 ,-0.4197317,0.6098022,-0.8928242,-0.2667579,-9.4181693,0.0588768,-0.69
 08182,-0.1859473,0.0027346,-0.4709555,0.5351806,-1.0170946,-0.5439989,
 0.0738941,-0.0061407,-0.0186585,-0.1945319,0.03098,-0.159907,-1.203082
 7,0.1238438,-0.0869871,9.4651185,-0.2050848,1.0874377,0.0789822,0.0072
 73,0.4108906,-0.4348087,1.3057598,-0.3330388,-0.0040172,0.0014181,-0.0
 372993,-0.0325497,-0.1737501,-0.1954486,1.1989067,-0.1641533,0.040075,
 -3.0676763,2.5599994,-3.1419389,-0.1078258,0.1025516,-0.2253484,2.3115
 462,-3.3666358,6.8089972,0.108527,-0.218321,0.3587995,0.0301937,0.2507
 654,0.0071636,-0.6950934,1.0298057,-0.1005913,11.5520473,1.8556158,1.8
 276888,0.1415936,0.0021695,-0.1567246,-1.6877203,1.7234411,-0.4723163,
 -0.0228627,0.0442517,0.080551,0.142713,0.0308755,0.0309718,2.343224,0.
 1494311,0.081849,3.4158901,-1.7612737,1.8739217,1.6092266,-1.0620351,0
 .9614385,0.2711652,1.3057848,0.4160393,0.1116392,0.1668868,0.3960649,1
 .3389172,-0.6127444,0.7347037,1.4113906,-0.9414887,1.7423045\HyperPola
 r=-5.6407938,-224.6769101,-425.7358547,-628.9739299,11.9913597,5.51943
 06,7.0368622,4.536456,-9.293906,7.5648972\PG=C01 [X(C7H6O2S1)]\NImag=0
 \\0.31262870,-0.02908110,0.25744828,0.00663993,-0.00446292,0.01110066,
 0.00032800,0.00036927,0.00003466,0.57599680,-0.00115848,-0.00165566,0.
 00001284,0.00870807,0.36956332,0.00015545,0.00025425,-0.00003306,0.241
 48292,-0.04199093,0.13989132,-0.00109318,-0.00215619,-0.00004959,-0.06
 343449,0.04150033,-0.03284257,0.82473130,-0.00059099,-0.00085007,-0.00
 000927,0.06203446,0.00918405,0.02082928,0.02044003,0.11060127,-0.00006
 240,-0.00014245,0.00006357,-0.03486900,0.01584379,0.00022246,0.2324510
 8,-0.00790712,0.10366681,0.00086925,-0.00368762,0.00019724,0.01360878,
 0.01462164,-0.00514936,-0.04756123,-0.03973036,-0.01297747,0.69415432,
 -0.00458157,-0.00558186,-0.00009667,-0.00673406,-0.04482320,0.00948977
 ,-0.02608204,0.00326214,-0.00327359,-0.02505667,0.65086724,0.00039241,
 0.00040588,-0.00069113,-0.00031155,0.01513676,0.01415100,-0.01463325,-
 0.00795587,0.01856529,0.02709979,-0.02019183,0.14679771,-0.00195641,0.
 00659845,-0.00027470,-0.00609996,0.00576353,-0.00093407,0.00404288,0.0
 0276640,-0.00009974,-0.32691173,-0.02125376,-0.00247213,0.68870289,0.0
 0189690,0.00314897,0.00011142,0.00115082,-0.00200027,-0.00063156,-0.00
 486261,-0.00543765,-0.00190991,0.03119787,-0.12194561,0.00411164,-0.01
 913951,0.72223754,-0.00013411,0.00017236,0.00489023,0.00042327,-0.0002
 8721,-0.00029555,0.00043857,-0.00044267,0.00269349,-0.00172979,0.00063
 312,-0.06416731,0.00256751,-0.00541828,0.13852453,-0.00272664,0.004055
 94,-0.00021497,-0.00188725,-0.00754219,0.00150322,-0.00437878,-0.00113
 264,-0.00036239,-0.17562459,0.11814220,-0.00902888,-0.02911696,0.02949
 780,-0.00118408,0.74977002,0.00714640,0.00337637,0.00024526,-0.0019321
 4,-0.00043682,0.00105072,0.00944665,-0.00258438,0.00251095,0.06335224,
 -0.26825149,0.00551116,0.07349322,0.02956479,0.00232832,0.02286057,0.6
 9060816,-0.00042389,-0.00012524,0.00241183,-0.00019971,0.00028453,0.00
 177242,-0.00073812,-0.00085754,-0.00037266,-0.00776528,0.00858954,-0.0
 6945675,-0.00225824,0.00040286,0.00837754,0.02074815,-0.01146700,0.147
 00790,-0.07004087,-0.02041014,-0.00054434,0.00023080,0.00155402,0.0002
 5433,0.00119977,-0.00091145,0.00048049,-0.04902452,0.03200480,-0.00291
 128,0.06321163,0.02553211,0.00065782,-0.02855551,-0.08014037,0.0012721
 8,0.61282655,-0.05095968,-0.15285538,0.00103870,-0.00114617,0.00216447
 ,-0.00057267,0.00305113,0.00171584,0.00022878,0.03366395,-0.01011013,0
 .00133586,-0.02689847,-0.06298842,0.00024353,-0.03141725,0.03203841,-0
 .00145103,-0.05222073,0.57022424,-0.00013070,0.00158302,-0.02346734,-0
 .00007564,0.00007854,0.00014909,-0.00011506,0.00008340,0.00013313,-0.0
 0126605,0.00083404,-0.00799809,0.00118462,0.00193283,0.00803402,-0.000
 60610,-0.00237103,0.00819889,0.01209306,-0.00858118,0.13374417,0.00536
 802,-0.01782380,0.00037251,0.00233992,-0.00093198,0.00021280,-0.001010
 49,-0.00252710,-0.00043230,-0.02882365,-0.02692503,0.00006506,-0.18470
 393,-0.13698842,0.00069604,-0.00157091,-0.00303020,0.00032851,-0.17400
 428,0.12130653,-0.00390587,0.74418865,0.00208217,-0.04079145,0.0008180
 2,0.00123904,-0.00181195,0.00119024,-0.00307799,-0.00177412,0.00011233
 ,-0.07509511,0.02496795,-0.00273984,-0.06913180,-0.29320321,0.00314407
 ,0.00232819,-0.06276295,0.00131063,0.06476427,-0.26124420,0.00490746,0
 .01366758,0.67050152,-0.00005485,0.00044938,0.00563572,0.00000666,-0.0
 0025465,-0.00009135,0.00112840,0.00023583,-0.00124521,0.00018296,-0.00
 008270,0.01016051,-0.00012524,0.00231184,-0.06234800,0.00006574,0.0012
 4233,-0.00599635,-0.00219636,0.00518517,-0.06629771,0.00670696,-0.0088
 6636,0.12994364,-0.02144534,-0.01463487,-0.00045561,0.00112991,-0.0006
 0074,-0.00047652,-0.00114985,-0.00085808,-0.00030988,0.05685242,-0.027
 10172,0.00351043,-0.04760440,-0.02494644,-0.00060568,-0.18632832,-0.07
 016544,-0.00309637,-0.31450789,-0.01527516,-0.00597850,-0.02398629,0.0
 6727892,-0.00257298,0.67251047,-0.03467314,-0.00348266,-0.00074438,-0.
 00111791,-0.00232844,0.00006506,-0.00237900,0.00159401,-0.00063994,0.0
 1874787,-0.05747357,0.00214216,-0.02780886,-0.01723214,-0.00035268,-0.
 13647731,-0.30973703,0.00005013,0.03810737,-0.11891010,0.00193358,0.02
 942888,0.03145329,-0.00002629,-0.01632885,0.75043918,-0.00000891,-0.00
 018980,0.00460212,0.00016512,-0.00061070,-0.00073300,0.00039407,0.0001
 0359,-0.00049120,0.00017479,0.00183506,0.01006517,-0.00058529,-0.00051
 957,-0.00567499,-0.00043767,0.00193237,-0.06445742,-0.00735559,0.00083
 326,-0.06893144,-0.00131531,0.00102828,0.00908532,0.01521778,-0.012419
 15,0.13617340,0.00160420,0.00266943,-0.00002249,-0.12275186,0.02263763
 ,-0.02939626,-0.71527220,-0.04038872,-0.18221893,-0.11889746,-0.029219
 62,-0.00201627,-0.01743739,-0.02747391,-0.00147457,0.02012550,-0.00402
 855,0.00207218,-0.00507891,-0.00196617,0.00014079,-0.00531621,0.004016
 77,-0.00054066,0.00163293,0.00925158,-0.00035797,0.98847740,0.00263758
 ,0.00438027,-0.00002911,0.06761701,-0.25642496,0.06055855,-0.03805607,
 -0.10918759,-0.00777332,-0.03814378,-0.16973197,0.00177368,-0.01993686
 ,0.00569184,-0.00033822,-0.01098502,-0.03794501,0.00138602,-0.00031413
 ,-0.00710544,-0.00004790,0.00565530,0.00893303,0.00008071,0.00647056,-
 0.00056054,0.00029350,0.02375553,0.55110780,-0.00019760,-0.00024104,-0
 .00046151,-0.03618975,0.03768871,-0.07084305,-0.18373723,-0.00738467,-
 0.12830966,0.00239653,0.00178258,-0.07889955,0.00148730,0.00087109,-0.
 00080782,0.00128191,-0.00134343,0.00269054,-0.00073615,0.00030367,-0.0
 0114387,-0.00056041,-0.00096644,0.00706136,-0.00046087,0.00159226,0.00
 650834,0.22580420,-0.04771758,0.28054540,0.00014812,-0.00051382,0.0000
 3341,0.00200898,-0.00242503,-0.00016898,0.00081749,-0.00084022,0.00036
 652,-0.00843477,0.02625445,-0.00059668,-0.13333972,0.12406471,0.000755
 23,-0.00580246,-0.00179591,-0.00007150,-0.00057123,-0.00315170,0.00013
 674,0.01073257,-0.01491876,0.00025218,-0.00044121,-0.00075216,0.000038
 78,-0.00081630,0.00448807,-0.00066861,0.13713795,0.00030752,-0.0007531
 8,0.00001658,-0.00298675,-0.00022652,-0.00006666,-0.00004497,0.0009305
 3,-0.00017232,-0.00031124,0.00320943,-0.00039497,0.12140292,-0.2560300
 5,-0.00026158,-0.00041009,0.00142982,-0.00019495,-0.00339778,-0.002867
 82,-0.00010602,0.01637320,-0.01892646,0.00004180,-0.00069493,0.0002931
 2,0.00000359,0.00048222,-0.00293056,0.00089652,-0.13015677,0.27444813,
 0.00000119,0.00011655,0.00009896,0.00056476,0.00028303,-0.00026610,-0.
 00078731,-0.00022258,0.00044703,-0.00142166,0.00015519,0.00271820,0.00
 290498,-0.00256047,-0.03683746,-0.00031377,-0.00008817,0.00636957,0.00
 016575,0.00033224,0.00716927,-0.00049925,0.00081748,0.00441611,0.00017
 955,-0.00001120,-0.00088922,0.00021582,0.00048465,-0.00378584,-0.00223
 663,-0.00035710,0.02518809,-0.00020642,0.00025240,-0.00001362,0.000155
 72,0.00019029,-0.00012815,0.00108025,-0.00190432,0.00041908,-0.0110539
 0,-0.00073395,-0.00064850,0.00032165,0.00255199,-0.00035484,-0.3446517
 1,-0.00122581,-0.01087236,0.00051852,-0.00207031,-0.00036115,0.0007978
 8,-0.00011399,0.00009505,-0.00785320,0.00255493,-0.00054311,-0.0021097
 1,-0.00142349,-0.00029299,-0.00041185,-0.00013634,-0.00006943,0.362795
 82,-0.00076285,0.00034306,-0.00000974,-0.00139475,0.00118278,-0.000650
 62,-0.00269144,0.00025283,-0.00009897,0.02606197,0.00509324,0.00093509
 ,0.00184632,-0.00496065,0.00033655,-0.00286483,-0.05645789,0.00113498,
 -0.00226146,-0.00392828,0.00014697,-0.00005300,-0.00099247,0.00001952,
 -0.02656276,0.00367482,-0.00085031,0.00485252,-0.00072580,0.00106928,0
 .00155220,0.00006391,-0.00003075,0.00210620,0.05531058,0.00000693,-0.0
 0003644,0.00012217,-0.00037454,0.00061280,0.00019685,-0.00016388,-0.00
 024374,-0.00035651,-0.00082820,0.00068218,0.00457265,-0.00015337,0.000
 30824,0.00574913,-0.01112271,0.00065029,-0.04160702,-0.00007071,0.0001
 5819,0.00762629,0.00016074,0.00005408,-0.00082823,0.00028088,0.0001124
 1,0.00509753,-0.00030002,-0.00052767,-0.00364679,-0.00006909,-0.000015
 30,0.00040728,0.01238230,-0.00167609,0.02832709,0.00098707,-0.00087138
 ,0.00001756,0.00007104,-0.00035053,0.00006373,-0.00040981,-0.00037395,
 -0.00008443,0.00097795,-0.00312142,0.00007862,-0.01117233,0.00283262,-
 0.00017687,0.00076780,0.00021309,0.00003028,-0.01139379,-0.00379316,-0
 .00002296,-0.33904410,0.00535311,-0.00255702,0.00068452,0.00288887,-0.
 00006005,-0.00013705,0.00107486,-0.00002269,0.00082750,0.00000633,0.00
 009779,-0.00006278,-0.00003032,-0.00000301,0.35782886,0.00177275,0.000
 80886,-0.00001664,0.00020247,-0.00036692,0.00004534,-0.00057261,-0.000
 57216,-0.00017594,-0.00182508,-0.00454403,0.00036964,-0.02789144,0.004
 02331,-0.00023067,-0.00002067,-0.00106019,-0.00003716,0.02568135,0.001
 63409,0.00024357,0.00500520,-0.05569202,0.00016618,0.00200342,-0.00464
 412,0.00027757,-0.00081090,0.00132576,0.00000783,0.00007501,0.00100184
 ,-0.00005522,-0.00004036,0.00002472,-0.00002201,-0.00433970,0.05791720
 ,0.00000361,-0.00012728,-0.00261397,0.00004043,0.00003256,-0.00005543,
 0.00005026,0.00009885,-0.00038114,-0.00036934,0.00021317,0.00695930,0.
 00084065,0.00000721,0.00331188,-0.00003484,-0.00021583,-0.00075757,-0.
 00097301,0.00035366,0.00267390,-0.00220425,-0.00020122,-0.03524815,-0.
 00001683,0.00033466,0.00576137,0.00003124,0.00001637,0.00083123,-0.000
 07023,0.00011904,-0.00440321,0.00003591,-0.00003268,-0.00077746,0.0027
 2343,-0.00059677,0.02400116,-0.00057332,0.00071096,-0.00001311,-0.0001
 1269,-0.00040624,0.00010894,-0.00019451,0.00008356,-0.00003288,-0.0010
 0748,-0.00305002,-0.00030465,-0.00068752,-0.00087073,0.00001993,0.0117
 1268,-0.01539721,0.00057947,-0.01035520,0.02699278,-0.00092786,-0.0051
 9238,-0.00161815,-0.00027097,-0.12894365,0.12277251,-0.00517985,0.0008
 7025,-0.00036395,0.00006671,0.00005138,0.00004327,0.00002458,0.0007661
 6,0.00033290,0.00015722,-0.00054056,0.00133943,-0.00002260,0.13385620,
 0.00006335,0.00084291,-0.00004809,-0.00017019,-0.00070338,0.00014579,-
 0.00043636,-0.00005251,-0.00008103,-0.00387311,-0.00256260,-0.00006098
 ,-0.00080282,0.00041226,-0.00004478,0.01526277,-0.01811565,0.00096849,
 -0.00300410,0.00397060,-0.00009250,-0.00072560,0.00106229,0.00009360,0
 .12256560,-0.26760852,0.00817595,0.00155764,-0.00003624,0.00015999,0.0
 0006539,-0.00005475,-0.00001037,0.00010040,0.00115254,-0.00010774,-0.0
 0010624,0.00033940,0.00000426,-0.13035722,0.28144205,-0.00000739,-0.00
 002289,-0.00126629,0.00004023,-0.00012772,-0.00023963,-0.00000431,-0.0
 0008885,0.00003003,0.00007039,-0.00006597,0.00752189,-0.00008598,-0.00
 009191,-0.00067155,0.00005933,0.00037721,0.00411411,-0.00014911,0.0007
 1454,0.00300098,-0.00037524,0.00008999,0.00605200,-0.00541792,0.008214
 64,-0.03798770,-0.00009599,0.00005588,0.00040467,-0.00000543,0.0000186
 9,-0.00096328,0.00026682,-0.00010592,-0.00467114,-0.00002964,0.0000578
 5,0.00017782,0.00577421,-0.00900032,0.02543045,-0.22365691,0.07475858,
 -0.00567798,0.00000755,-0.00002222,0.00001226,0.00012030,-0.00000985,0
 .00001478,0.00030472,0.00021510,-0.00000879,-0.00019668,-0.00029649,0.
 00000582,-0.00079205,0.00051577,-0.00007970,-0.01508576,0.00369684,-0.
 00030965,0.00126604,0.00294698,-0.00001456,0.00007358,-0.00376176,0.00
 005447,-0.00008491,-0.00012613,-0.00001588,0.00002330,0.00003964,-0.00
 001057,-0.00005793,-0.00023873,0.00001495,0.00067094,-0.00046693,0.000
 01183,0.00041065,-0.00005138,0.00003933,0.23700377,0.10572972,-0.06470
 141,0.00314847,0.00006085,-0.00011905,0.00001862,-0.00002160,-0.000086
 97,0.00000865,-0.00001541,-0.00004428,0.00002771,-0.00010246,0.0002233
 9,-0.00002286,-0.00144336,0.00065805,-0.00005379,-0.02431715,0.0082793
 3,-0.00068195,-0.00152108,0.00065851,-0.00001306,-0.00146589,-0.006080
 32,0.00011316,0.00007608,0.00020444,-0.00005186,0.00007109,0.00007258,
 -0.00001159,-0.00010115,-0.00032251,0.00000918,0.00051535,-0.00028272,
 0.00000430,-0.00023244,-0.00016027,-0.00001752,-0.07719779,0.06169712,
 -0.00615388,0.00253934,-0.00039419,-0.00002116,0.00003275,0.00001934,0
 .00000762,-0.00000727,-0.00000442,0.00000823,0.00002533,0.00008528,0.0
 0002277,-0.00003417,-0.00070365,-0.00006736,-0.00000397,0.00155443,0.0
 0013325,-0.00013119,-0.00294220,0.00002457,0.00006531,-0.00006452,0.00
 000233,0.00007002,0.00185170,0.00000188,-0.00003152,-0.00012471,-0.000
 00920,0.00000112,-0.00004583,0.00001159,0.00000084,-0.00021528,0.00001
 230,-0.00000999,0.00047070,0.00004906,-0.00002246,-0.00093535,0.005958
 96,-0.00249266,0.00143845,-0.00023426,-0.00023610,-0.00002889,-0.40159
 125,-0.08153809,-0.17469773,0.00251255,0.00394322,-0.00228254,0.000571
 88,-0.00275670,0.00178565,0.00294797,-0.00414672,0.00009575,-0.0009408
 2,0.00068767,0.00047441,0.00063069,0.00018758,0.00014433,-0.00104084,0
 .00027877,-0.00010531,-0.00062368,-0.00045302,-0.00020127,-0.02480831,
 -0.00234949,-0.00815447,-0.00192976,-0.00051623,0.00118420,-0.00002852
 ,0.00010802,0.00008252,-0.00005527,-0.00011195,-0.00004628,-0.00006000
 ,-0.00008812,-0.00007931,-0.00000663,-0.00003476,0.00001903,0.42465627
 ,0.00017143,0.00032294,0.00002554,-0.12590002,-0.07119745,-0.04973516,
 0.00594274,-0.00699523,0.00347010,0.00009283,-0.00233127,-0.00040609,0
 .00109513,-0.00150408,0.00054098,0.00014589,-0.00032419,0.00005953,-0.
 00066661,-0.00001721,0.00013717,-0.00091048,-0.00037775,-0.00058330,0.
 00031637,0.00060303,-0.00000680,0.03458845,0.01300496,0.01333311,-0.00
 201655,0.00033997,0.00115832,-0.00000648,0.00028913,0.00004162,0.00010
 249,0.00008699,-0.00001031,0.00002056,0.00007187,-0.00000770,-0.000001
 66,0.00000411,-0.00000148,0.08702591,0.06802418,-0.00002580,-0.0001727
 2,0.00000222,-0.17071670,-0.02673509,-0.08384529,-0.00139871,0.0037686
 3,0.00533898,0.00137724,-0.00052922,-0.00038417,-0.00201906,0.00110873
 ,-0.00007449,-0.00028558,-0.00035918,0.00015055,-0.00012035,0.00000848
 ,0.00005092,0.00072544,-0.00076403,-0.00023513,0.00020021,-0.00032129,
 0.00002001,-0.01184295,-0.00818404,-0.01001875,0.00231347,0.00047156,0
 .00037644,0.00007338,-0.00018814,0.00000344,-0.00006703,-0.00002357,0.
 00004958,-0.00002819,-0.00007980,0.00000299,0.00000472,0.00001519,0.00
 001024,0.18180990,0.03198447,0.08855246\\-0.00000032,-0.00000442,-0.00
 000016,-0.00002596,-0.00000167,-0.00003083,-0.00000972,0.00000634,0.00
 000071,-0.00002102,-0.00000495,0.00000221,0.00000990,0.00001438,-0.000
 00941,0.00001065,0.00000115,-0.00000405,-0.00000158,0.00001001,0.00000
 162,-0.00000867,-0.00001102,0.00000127,0.00000575,-0.00000654,0.000000
 63,0.00001801,-0.00001132,0.00000565,0.00000105,-0.00000920,-0.0000002
 7,-0.00000754,-0.00000087,0.00000141,0.00000705,0.00000201,0.00000036,
 -0.00000425,0.00000593,0.00000127,0.00000177,0.00000131,0.00000008,0.0
 0002488,0.00000887,0.00002949\\\@


 SIGN SEEN IN A RESTAURANT-
 WE RESERVE THE RIGHT TO SERVE REFUSE TO ANYONE.
 Job cpu time:       0 days  0 hours 27 minutes 37.7 seconds.
 File lengths (MBytes):  RWF=     68 Int=      0 D2E=      0 Chk=      3 Scr=      1
 Normal termination of Gaussian 09 at Thu Jun  6 11:43:05 2019.
