comment                                                                 
Freq      RB3LYP                                                      def2SVP             
Number of atoms                            I               16
Info1-9                                    I   N=           9
          10           5           0           0           0         100
           6          18        -502
Charge                                     I                0
Multiplicity                               I                1
Number of electrons                        I               66
Number of alpha electrons                  I               33
Number of beta electrons                   I               33
Number of basis functions                  I              156
Number of independent functions            I              156
Number of point charges in /Mol/           I                0
Number of translation vectors              I                0
Atomic numbers                             I   N=          16
           6           6           6           6           6           6
          16           1           1           1           1           1
           6           1           1           1
Nuclear charges                            R   N=          16
  6.00000000E+00  6.00000000E+00  6.00000000E+00  6.00000000E+00  6.00000000E+00
  6.00000000E+00  1.60000000E+01  1.00000000E+00  1.00000000E+00  1.00000000E+00
  1.00000000E+00  1.00000000E+00  6.00000000E+00  1.00000000E+00  1.00000000E+00
  1.00000000E+00
Current cartesian coordinates              R   N=          48
  6.73570451E-01  3.41648919E+00  1.91991719E-01  2.11665383E+00  1.20182022E+00
  6.21561856E-02  9.86752445E-01 -1.18251139E+00 -2.35475167E-02 -1.65003320E+00
 -1.41058519E+00  1.92776793E-02 -3.12206274E+00  7.94850309E-01  1.49008341E-01
 -1.96757612E+00  3.15849988E+00  2.33070729E-01 -3.25073516E+00 -4.36595575E+00
 -8.36090071E-02 -1.16325509E+00 -5.83278992E+00 -1.86787750E-01  2.17429991E+00
 -2.86865542E+00 -1.24618154E-01 -5.18226455E+00  6.55927522E-01  1.83932268E-01
  4.17857556E+00  1.33349268E+00  2.64054870E-02 -3.15181447E+00  4.84976329E+00
  3.33393462E-01  1.88941024E+00  5.99117534E+00  2.87385471E-01  3.96217508E+00
  5.85780212E+00  2.14062010E-01  1.37963425E+00  7.00602647E+00  2.03498695E+00
  1.27168083E+00  7.18133119E+00 -1.30787475E+00
Force Field                                I                0
Int Atom Types                             I   N=          16
           0           0           0           0           0           0
           0           0           0           0           0           0
           0           0           0           0
MM charges                                 R   N=          16
  0.00000000E+00  0.00000000E+00  0.00000000E+00  0.00000000E+00  0.00000000E+00
  0.00000000E+00  0.00000000E+00  0.00000000E+00  0.00000000E+00  0.00000000E+00
  0.00000000E+00  0.00000000E+00  0.00000000E+00  0.00000000E+00  0.00000000E+00
  0.00000000E+00
Integer atomic weights                     I   N=          16
          12          12          12          12          12          12
          32           1           1           1           1           1
          12           1           1           1
Real atomic weights                        R   N=          16
  1.20000000E+01  1.20000000E+01  1.20000000E+01  1.20000000E+01  1.20000000E+01
  1.20000000E+01  3.19720718E+01  1.00782504E+00  1.00782504E+00  1.00782504E+00
  1.00782504E+00  1.00782504E+00  1.20000000E+01  1.00782504E+00  1.00782504E+00
  1.00782504E+00
Atom fragment info                         I   N=          16
           0           0           0           0           0           0
           0           0           0           0           0           0
           0           0           0           0
Atom residue num                           I   N=          16
           0           0           0           0           0           0
           0           0           0           0           0           0
           0           0           0           0
Nuclear spins                              I   N=          16
           0           0           0           0           0           0
           0           1           1           1           1           1
           0           1           1           1
Nuclear ZEff                               R   N=          16
 -3.60000000E+00 -3.60000000E+00 -3.60000000E+00 -3.60000000E+00 -3.60000000E+00
 -3.60000000E+00 -1.36000000E+01 -1.00000000E+00 -1.00000000E+00 -1.00000000E+00
 -1.00000000E+00 -1.00000000E+00 -3.60000000E+00 -1.00000000E+00 -1.00000000E+00
 -1.00000000E+00
Nuclear ZNuc                               R   N=          16
  6.00000000E+00  6.00000000E+00  6.00000000E+00  6.00000000E+00  6.00000000E+00
  6.00000000E+00  1.60000000E+01  1.00000000E+00  1.00000000E+00  1.00000000E+00
  1.00000000E+00  1.00000000E+00  6.00000000E+00  1.00000000E+00  1.00000000E+00
  1.00000000E+00
Nuclear QMom                               R   N=          16
  0.00000000E+00  0.00000000E+00  0.00000000E+00  0.00000000E+00  0.00000000E+00
  0.00000000E+00  0.00000000E+00  0.00000000E+00  0.00000000E+00  0.00000000E+00
  0.00000000E+00  0.00000000E+00  0.00000000E+00  0.00000000E+00  0.00000000E+00
  0.00000000E+00
Nuclear GFac                               R   N=          16
  0.00000000E+00  0.00000000E+00  0.00000000E+00  0.00000000E+00  0.00000000E+00
  0.00000000E+00  0.00000000E+00  2.79284600E+00  2.79284600E+00  2.79284600E+00
  2.79284600E+00  2.79284600E+00  0.00000000E+00  2.79284600E+00  2.79284600E+00
  2.79284600E+00
MicOpt                                     I   N=          16
          -1          -1          -1          -1          -1          -1
          -1          -1          -1          -1          -1          -1
          -1          -1          -1          -1
Number of contracted shells                I               74
Number of primitive shells                 I              142
Pure/Cartesian d shells                    I                0
Pure/Cartesian f shells                    I                0
Highest angular momentum                   I                2
Largest degree of contraction              I                5
Shell types                                I   N=          74
           0           0           0           1           1          -2
           0           0           0           1           1          -2
           0           0           0           1           1          -2
           0           0           0           1           1          -2
           0           0           0           1           1          -2
           0           0           0           1           1          -2
           0           0           0           0           1           1
           1          -2           0           0           1           0
           0           1           0           0           1           0
           0           1           0           0           1           0
           0           0           1           1          -2           0
           0           1           0           0           1           0
           0           1
Number of primitives per shell             I   N=          74
           5           1           1           3           1           1
           5           1           1           3           1           1
           5           1           1           3           1           1
           5           1           1           3           1           1
           5           1           1           3           1           1
           5           1           1           3           1           1
           5           3           1           1           5           1
           1           1           3           1           1           3
           1           1           3           1           1           3
           1           1           3           1           1           5
           1           1           3           1           1           3
           1           1           3           1           1           3
           1           1
Shell to atom map                          I   N=          74
           1           1           1           1           1           1
           2           2           2           2           2           2
           3           3           3           3           3           3
           4           4           4           4           4           4
           5           5           5           5           5           5
           6           6           6           6           6           6
           7           7           7           7           7           7
           7           7           8           8           8           9
           9           9          10          10          10          11
          11          11          12          12          12          13
          13          13          13          13          13          14
          14          14          15          15          15          16
          16          16
Primitive exponents                        R   N=         142
  1.23840169E+03  1.86290050E+02  4.22511763E+01  1.16765579E+01  3.59305065E+00
  4.02451474E-01  1.30901827E-01  9.46809706E+00  2.01035451E+00  5.47710047E-01
  1.52686138E-01  8.00000000E-01  1.23840169E+03  1.86290050E+02  4.22511763E+01
  1.16765579E+01  3.59305065E+00  4.02451474E-01  1.30901827E-01  9.46809706E+00
  2.01035451E+00  5.47710047E-01  1.52686138E-01  8.00000000E-01  1.23840169E+03
  1.86290050E+02  4.22511763E+01  1.16765579E+01  3.59305065E+00  4.02451474E-01
  1.30901827E-01  9.46809706E+00  2.01035451E+00  5.47710047E-01  1.52686138E-01
  8.00000000E-01  1.23840169E+03  1.86290050E+02  4.22511763E+01  1.16765579E+01
  3.59305065E+00  4.02451474E-01  1.30901827E-01  9.46809706E+00  2.01035451E+00
  5.47710047E-01  1.52686138E-01  8.00000000E-01  1.23840169E+03  1.86290050E+02
  4.22511763E+01  1.16765579E+01  3.59305065E+00  4.02451474E-01  1.30901827E-01
  9.46809706E+00  2.01035451E+00  5.47710047E-01  1.52686138E-01  8.00000000E-01
  1.23840169E+03  1.86290050E+02  4.22511763E+01  1.16765579E+01  3.59305065E+00
  4.02451474E-01  1.30901827E-01  9.46809706E+00  2.01035451E+00  5.47710047E-01
  1.52686138E-01  8.00000000E-01  9.18493030E+03  1.38151055E+03  3.13871476E+02
  8.80538706E+01  2.70399149E+01  4.56487313E+01  4.96645223E+00  2.01162420E+00
  3.56610770E-01  1.35072215E-01  2.61982334E+02  6.13068947E+01  1.91037299E+01
  6.65677204E+00  2.39596352E+00  6.17761617E-01  1.69933769E-01  5.50000000E-01
  1.30107010E+01  1.96225720E+00  4.44537960E-01  1.21949620E-01  8.00000000E-01
  1.30107010E+01  1.96225720E+00  4.44537960E-01  1.21949620E-01  8.00000000E-01
  1.30107010E+01  1.96225720E+00  4.44537960E-01  1.21949620E-01  8.00000000E-01
  1.30107010E+01  1.96225720E+00  4.44537960E-01  1.21949620E-01  8.00000000E-01
  1.30107010E+01  1.96225720E+00  4.44537960E-01  1.21949620E-01  8.00000000E-01
  1.23840169E+03  1.86290050E+02  4.22511763E+01  1.16765579E+01  3.59305065E+00
  4.02451474E-01  1.30901827E-01  9.46809706E+00  2.01035451E+00  5.47710047E-01
  1.52686138E-01  8.00000000E-01  1.30107010E+01  1.96225720E+00  4.44537960E-01
  1.21949620E-01  8.00000000E-01  1.30107010E+01  1.96225720E+00  4.44537960E-01
  1.21949620E-01  8.00000000E-01  1.30107010E+01  1.96225720E+00  4.44537960E-01
  1.21949620E-01  8.00000000E-01
Contraction coefficients                   R   N=         142
  5.51736505E-03  4.10888286E-02  1.82253821E-01  4.68284594E-01  4.45758173E-01
  1.00000000E+00  1.00000000E+00  5.68883320E-02  3.12940593E-01  7.60650165E-01
  1.00000000E+00  1.00000000E+00  5.51736505E-03  4.10888286E-02  1.82253821E-01
  4.68284594E-01  4.45758173E-01  1.00000000E+00  1.00000000E+00  5.68883320E-02
  3.12940593E-01  7.60650165E-01  1.00000000E+00  1.00000000E+00  5.51736505E-03
  4.10888286E-02  1.82253821E-01  4.68284594E-01  4.45758173E-01  1.00000000E+00
  1.00000000E+00  5.68883320E-02  3.12940593E-01  7.60650165E-01  1.00000000E+00
  1.00000000E+00  5.51736505E-03  4.10888286E-02  1.82253821E-01  4.68284594E-01
  4.45758173E-01  1.00000000E+00  1.00000000E+00  5.68883320E-02  3.12940593E-01
  7.60650165E-01  1.00000000E+00  1.00000000E+00  5.51736505E-03  4.10888286E-02
  1.82253821E-01  4.68284594E-01  4.45758173E-01  1.00000000E+00  1.00000000E+00
  5.68883320E-02  3.12940593E-01  7.60650165E-01  1.00000000E+00  1.00000000E+00
  5.51736505E-03  4.10888286E-02  1.82253821E-01  4.68284594E-01  4.45758173E-01
  1.00000000E+00  1.00000000E+00  5.68883320E-02  3.12940593E-01  7.60650165E-01
  1.00000000E+00  1.00000000E+00 -5.47294661E-03 -4.09544022E-02 -1.84758290E-01
 -4.75672806E-01 -4.34951536E-01 -9.19040458E-02  5.56987772E-01  5.11154683E-01
  1.00000000E+00  1.00000000E+00 -9.18305466E-03 -6.59022265E-02 -2.45877845E-01
 -4.82314711E-01 -3.89563144E-01  1.00000000E+00  1.00000000E+00  1.00000000E+00
  3.34854848E-02  2.34721871E-01  8.13770285E-01  1.00000000E+00  1.00000000E+00
  3.34854848E-02  2.34721871E-01  8.13770285E-01  1.00000000E+00  1.00000000E+00
  3.34854848E-02  2.34721871E-01  8.13770285E-01  1.00000000E+00  1.00000000E+00
  3.34854848E-02  2.34721871E-01  8.13770285E-01  1.00000000E+00  1.00000000E+00
  3.34854848E-02  2.34721871E-01  8.13770285E-01  1.00000000E+00  1.00000000E+00
  5.51736505E-03  4.10888286E-02  1.82253821E-01  4.68284594E-01  4.45758173E-01
  1.00000000E+00  1.00000000E+00  5.68883320E-02  3.12940593E-01  7.60650165E-01
  1.00000000E+00  1.00000000E+00  3.34854848E-02  2.34721871E-01  8.13770285E-01
  1.00000000E+00  1.00000000E+00  3.34854848E-02  2.34721871E-01  8.13770285E-01
  1.00000000E+00  1.00000000E+00  3.34854848E-02  2.34721871E-01  8.13770285E-01
  1.00000000E+00  1.00000000E+00
Coordinates of each shell                  R   N=         222
  6.73570451E-01  3.41648919E+00  1.91991719E-01  6.73570451E-01  3.41648919E+00
  1.91991719E-01  6.73570451E-01  3.41648919E+00  1.91991719E-01  6.73570451E-01
  3.41648919E+00  1.91991719E-01  6.73570451E-01  3.41648919E+00  1.91991719E-01
  6.73570451E-01  3.41648919E+00  1.91991719E-01  2.11665383E+00  1.20182022E+00
  6.21561856E-02  2.11665383E+00  1.20182022E+00  6.21561856E-02  2.11665383E+00
  1.20182022E+00  6.21561856E-02  2.11665383E+00  1.20182022E+00  6.21561856E-02
  2.11665383E+00  1.20182022E+00  6.21561856E-02  2.11665383E+00  1.20182022E+00
  6.21561856E-02  9.86752445E-01 -1.18251139E+00 -2.35475167E-02  9.86752445E-01
 -1.18251139E+00 -2.35475167E-02  9.86752445E-01 -1.18251139E+00 -2.35475167E-02
  9.86752445E-01 -1.18251139E+00 -2.35475167E-02  9.86752445E-01 -1.18251139E+00
 -2.35475167E-02  9.86752445E-01 -1.18251139E+00 -2.35475167E-02 -1.65003320E+00
 -1.41058519E+00  1.92776793E-02 -1.65003320E+00 -1.41058519E+00  1.92776793E-02
 -1.65003320E+00 -1.41058519E+00  1.92776793E-02 -1.65003320E+00 -1.41058519E+00
  1.92776793E-02 -1.65003320E+00 -1.41058519E+00  1.92776793E-02 -1.65003320E+00
 -1.41058519E+00  1.92776793E-02 -3.12206274E+00  7.94850309E-01  1.49008341E-01
 -3.12206274E+00  7.94850309E-01  1.49008341E-01 -3.12206274E+00  7.94850309E-01
  1.49008341E-01 -3.12206274E+00  7.94850309E-01  1.49008341E-01 -3.12206274E+00
  7.94850309E-01  1.49008341E-01 -3.12206274E+00  7.94850309E-01  1.49008341E-01
 -1.96757612E+00  3.15849988E+00  2.33070729E-01 -1.96757612E+00  3.15849988E+00
  2.33070729E-01 -1.96757612E+00  3.15849988E+00  2.33070729E-01 -1.96757612E+00
  3.15849988E+00  2.33070729E-01 -1.96757612E+00  3.15849988E+00  2.33070729E-01
 -1.96757612E+00  3.15849988E+00  2.33070729E-01 -3.25073516E+00 -4.36595575E+00
 -8.36090071E-02 -3.25073516E+00 -4.36595575E+00 -8.36090071E-02 -3.25073516E+00
 -4.36595575E+00 -8.36090071E-02 -3.25073516E+00 -4.36595575E+00 -8.36090071E-02
 -3.25073516E+00 -4.36595575E+00 -8.36090071E-02 -3.25073516E+00 -4.36595575E+00
 -8.36090071E-02 -3.25073516E+00 -4.36595575E+00 -8.36090071E-02 -3.25073516E+00
 -4.36595575E+00 -8.36090071E-02 -1.16325509E+00 -5.83278992E+00 -1.86787750E-01
 -1.16325509E+00 -5.83278992E+00 -1.86787750E-01 -1.16325509E+00 -5.83278992E+00
 -1.86787750E-01  2.17429991E+00 -2.86865542E+00 -1.24618154E-01  2.17429991E+00
 -2.86865542E+00 -1.24618154E-01  2.17429991E+00 -2.86865542E+00 -1.24618154E-01
 -5.18226455E+00  6.55927522E-01  1.83932268E-01 -5.18226455E+00  6.55927522E-01
  1.83932268E-01 -5.18226455E+00  6.55927522E-01  1.83932268E-01  4.17857556E+00
  1.33349268E+00  2.64054870E-02  4.17857556E+00  1.33349268E+00  2.64054870E-02
  4.17857556E+00  1.33349268E+00  2.64054870E-02 -3.15181447E+00  4.84976329E+00
  3.33393462E-01 -3.15181447E+00  4.84976329E+00  3.33393462E-01 -3.15181447E+00
  4.84976329E+00  3.33393462E-01  1.88941024E+00  5.99117534E+00  2.87385471E-01
  1.88941024E+00  5.99117534E+00  2.87385471E-01  1.88941024E+00  5.99117534E+00
  2.87385471E-01  1.88941024E+00  5.99117534E+00  2.87385471E-01  1.88941024E+00
  5.99117534E+00  2.87385471E-01  1.88941024E+00  5.99117534E+00  2.87385471E-01
  3.96217508E+00  5.85780212E+00  2.14062010E-01  3.96217508E+00  5.85780212E+00
  2.14062010E-01  3.96217508E+00  5.85780212E+00  2.14062010E-01  1.37963425E+00
  7.00602647E+00  2.03498695E+00  1.37963425E+00  7.00602647E+00  2.03498695E+00
  1.37963425E+00  7.00602647E+00  2.03498695E+00  1.27168083E+00  7.18133119E+00
 -1.30787475E+00  1.27168083E+00  7.18133119E+00 -1.30787475E+00  1.27168083E+00
  7.18133119E+00 -1.30787475E+00
Constraint Structure                       R   N=          48
  6.73570451E-01  3.41648919E+00  1.91991719E-01  2.11665383E+00  1.20182022E+00
  6.21561856E-02  9.86752445E-01 -1.18251139E+00 -2.35475167E-02 -1.65003320E+00
 -1.41058519E+00  1.92776793E-02 -3.12206274E+00  7.94850309E-01  1.49008341E-01
 -1.96757612E+00  3.15849988E+00  2.33070729E-01 -3.25073516E+00 -4.36595575E+00
 -8.36090071E-02 -1.16325509E+00 -5.83278992E+00 -1.86787750E-01  2.17429991E+00
 -2.86865542E+00 -1.24618154E-01 -5.18226455E+00  6.55927522E-01  1.83932268E-01
  4.17857556E+00  1.33349268E+00  2.64054870E-02 -3.15181447E+00  4.84976329E+00
  3.33393462E-01  1.88941024E+00  5.99117534E+00  2.87385471E-01  3.96217508E+00
  5.85780212E+00  2.14062010E-01  1.37963425E+00  7.00602647E+00  2.03498695E+00
  1.27168083E+00  7.18133119E+00 -1.30787475E+00
Num ILSW                                   I              100
ILSW                                       I   N=         100
           0           0           0           0           2           0
           0           0           0           0         402          -1
           5           0           0           0           2           0
           0           0           0           0           1           0
           1           1           0           0           0           0
           0           0      100000           0          -1           0
           0           0           0           0           0           0
           0           0           0           1           0           0
           0           0           1           0           0           0
           0           0         141          41           0           0
           0           0           5           0           0           0
           0           0           0          16           0           0
           0           0           0           0           0           0
           0           0           0           0           0           0
           0           0           0           0           0           0
           0           0           0           0           0           0
           0           0           0           0
Num RLSW                                   I               41
RLSW                                       R   N=          41
  8.00000000E-01  7.20000000E-01  1.00000000E+00  8.10000000E-01  2.00000000E-01
  0.00000000E+00  0.00000000E+00  1.00000000E+00  0.00000000E+00  0.00000000E+00
  0.00000000E+00  0.00000000E+00  1.00000000E+00  0.00000000E+00  0.00000000E+00
  0.00000000E+00  0.00000000E+00  1.00000000E+00  0.00000000E+00  0.00000000E+00
  0.00000000E+00  0.00000000E+00  1.00000000E+00  0.00000000E+00  0.00000000E+00
  0.00000000E+00  0.00000000E+00  1.00000000E+00  0.00000000E+00  0.00000000E+00
  0.00000000E+00  0.00000000E+00  1.00000000E+00  0.00000000E+00  0.00000000E+00
  0.00000000E+00  0.00000000E+00  0.00000000E+00  1.00000000E+00  1.00000000E+00
  0.00000000E+00
ECP-MxAtEC                                 I           250000
ECP-MaxLECP                                I               10
ECP-MaxAtL                                 I          2250000
ECP-MxTECP                                 I         11250000
ECP-LenNCZ                                 I                0
ECP-KFirst                                 I   N=         160
           0           0           0           0           0           0
           0           0           0           0           0           0
           0           0           0           0           0           0
           0           0           0           0           0           0
           0           0           0           0           0           0
           0           0           0           0           0           0
           0           0           0           0           0           0
           0           0           0           0           0           0
           0           0           0           0           0           0
           0           0           0           0           0           0
           0           0           0           0           0           0
           0           0           0           0           0           0
           0           0           0           0           0           0
           0           0           0           0           0           0
           0           0           0           0           0           0
           0           0           0           0           0           0
           0           0           0           0           0           0
           0           0           0           0           0           0
           0           0           0           0           0           0
           0           0           0           0           0           0
           0           0           0           0           0           0
           0           0           0           0           0           0
           0           0           0           0           0           0
           0           0           0           0           0           0
           0           0           0           0           0           0
           0           0           0           0           0           0
           0           0           0           0
ECP-KLast                                  I   N=         160
           0           0           0           0           0           0
           0           0           0           0           0           0
           0           0           0           0           0           0
           0           0           0           0           0           0
           0           0           0           0           0           0
           0           0           0           0           0           0
           0           0           0           0           0           0
           0           0           0           0           0           0
           0           0           0           0           0           0
           0           0           0           0           0           0
           0           0           0           0           0           0
           0           0           0           0           0           0
           0           0           0           0           0           0
           0           0           0           0           0           0
           0           0           0           0           0           0
           0           0           0           0           0           0
           0           0           0           0           0           0
           0           0           0           0           0           0
           0           0           0           0           0           0
           0           0           0           0           0           0
           0           0           0           0           0           0
           0           0           0           0           0           0
           0           0           0           0           0           0
           0           0           0           0           0           0
           0           0           0           0           0           0
           0           0           0           0           0           0
           0           0           0           0
ECP-LMax                                   I   N=          16
           0           0           0           0           0           0
           0           0           0           0           0           0
           0           0           0           0
ECP-LPSkip                                 I   N=          16
           1           1           1           1           1           1
           1           1           1           1           1           1
           1           1           1           1
ECP-RNFroz                                 R   N=          16
  0.00000000E+00  0.00000000E+00  0.00000000E+00  0.00000000E+00  0.00000000E+00
  0.00000000E+00  0.00000000E+00  0.00000000E+00  0.00000000E+00  0.00000000E+00
  0.00000000E+00  0.00000000E+00  0.00000000E+00  0.00000000E+00  0.00000000E+00
  0.00000000E+00
ECP-NLP                                    I                0
ECP-CLP1                                   R      0.000000000000000E+00
ECP-CLP2                                   R      0.000000000000000E+00
ECP-ZLP                                    R      0.000000000000000E+00
MxBond                                     I                4
NBond                                      I   N=          16
           3           3           3           3           3           3
           2           1           1           1           1           1
           4           1           1           1
IBond                                      I   N=          64
           2           6          13           0           1           3
          11           0           2           4           9           0
           3           5           7           0           4           6
          10           0           1           5          12           0
           4           8           0           0           7           0
           0           0           3           0           0           0
           5           0           0           0           2           0
           0           0           6           0           0           0
           1          14          15          16          13           0
           0           0          13           0           0           0
          13           0           0           0
RBond                                      R   N=          64
  1.50000000E+00  1.50000000E+00  1.00000000E+00  0.00000000E+00  1.50000000E+00
  1.50000000E+00  1.00000000E+00  0.00000000E+00  1.50000000E+00  1.50000000E+00
  1.00000000E+00  0.00000000E+00  1.50000000E+00  1.50000000E+00  1.00000000E+00
  0.00000000E+00  1.50000000E+00  1.50000000E+00  1.00000000E+00  0.00000000E+00
  1.50000000E+00  1.50000000E+00  1.00000000E+00  0.00000000E+00  1.00000000E+00
  1.00000000E+00  0.00000000E+00  0.00000000E+00  1.00000000E+00  0.00000000E+00
  0.00000000E+00  0.00000000E+00  1.00000000E+00  0.00000000E+00  0.00000000E+00
  0.00000000E+00  1.00000000E+00  0.00000000E+00  0.00000000E+00  0.00000000E+00
  1.00000000E+00  0.00000000E+00  0.00000000E+00  0.00000000E+00  1.00000000E+00
  0.00000000E+00  0.00000000E+00  0.00000000E+00  1.00000000E+00  1.00000000E+00
  1.00000000E+00  1.00000000E+00  1.00000000E+00  0.00000000E+00  0.00000000E+00
  0.00000000E+00  1.00000000E+00  0.00000000E+00  0.00000000E+00  0.00000000E+00
  1.00000000E+00  0.00000000E+00  0.00000000E+00  0.00000000E+00
Virial Ratio                               R      2.006300085731902E+00
SCF Energy                                 R     -6.694836093133295E+02
Total Energy                               R     -6.694836093133295E+02
RMS Force                                  R      1.992027215246017E-07
RMS Density                                R      5.546791111694812E-09
Job Status                                 I                1
Nuclear derivative order                   I                2
External E-field                           R   N=          35
  0.00000000E+00  0.00000000E+00  0.00000000E+00  0.00000000E+00  0.00000000E+00
  0.00000000E+00  0.00000000E+00  0.00000000E+00  0.00000000E+00  0.00000000E+00
  0.00000000E+00  0.00000000E+00  0.00000000E+00  0.00000000E+00  0.00000000E+00
  0.00000000E+00  0.00000000E+00  0.00000000E+00  0.00000000E+00  0.00000000E+00
  0.00000000E+00  0.00000000E+00  0.00000000E+00  0.00000000E+00  0.00000000E+00
  0.00000000E+00  0.00000000E+00  0.00000000E+00  0.00000000E+00  0.00000000E+00
  0.00000000E+00  0.00000000E+00  0.00000000E+00  0.00000000E+00  0.00000000E+00
IOpCl                                      I                0
IROHF                                      I                0
Alpha Orbital Energies                     R   N=         156
 -8.88497407E+01 -1.02212465E+01 -1.01953093E+01 -1.01951784E+01 -1.01943224E+01
 -1.01919142E+01 -1.01914016E+01 -1.01896689E+01 -7.94482328E+00 -5.91420361E+00
 -5.91023830E+00 -5.90368760E+00 -8.59399239E-01 -7.92914083E-01 -7.41805892E-01
 -7.30113728E-01 -6.60847595E-01 -6.09280158E-01 -5.76462950E-01 -5.00195013E-01
 -4.75833250E-01 -4.54519605E-01 -4.24969359E-01 -4.21681415E-01 -4.16359571E-01