comment                                                                 
Freq      RB3LYP                                                      def2SVP             
Number of atoms                            I               16
Info1-9                                    I   N=           9
          10           5           0           0           0         100
           6          18        -502
Charge                                     I                0
Multiplicity                               I                1
Number of electrons                        I               80
Number of alpha electrons                  I               40
Number of beta electrons                   I               40
Number of basis functions                  I              174
Number of independent functions            I              174
Number of point charges in /Mol/           I                0
Number of translation vectors              I                0
Atomic numbers                             I   N=          16
          16           8           8           6           6           6
           6           6           6           6           1           1
           1           1           1           1
Nuclear charges                            R   N=          16
  1.60000000E+01  8.00000000E+00  8.00000000E+00  6.00000000E+00  6.00000000E+00
  6.00000000E+00  6.00000000E+00  6.00000000E+00  6.00000000E+00  6.00000000E+00
  1.00000000E+00  1.00000000E+00  1.00000000E+00  1.00000000E+00  1.00000000E+00
  1.00000000E+00
Current cartesian coordinates              R   N=          48
  2.97802397E+00  6.08396637E+00 -1.21715602E-01 -1.60546720E+00 -5.99925730E+00
  6.82801569E-01 -4.97375675E+00 -3.92549288E+00 -7.08724093E-01 -1.24851925E+00
 -1.48839405E+00 -5.91403755E-02  1.40171926E+00 -1.46522521E+00 -1.78514149E-02
 -2.53660506E+00  8.28359818E-01 -1.69723560E-01  1.43572219E+00  3.11403290E+00
 -1.05914703E-01  2.73821892E+00  8.03638906E-01 -3.97600472E-02 -1.22311002E+00
  3.10119002E+00 -1.75427291E-01 -2.79139253E+00 -3.86248163E+00 -7.54671865E-02
  2.47946625E+00 -3.22929373E+00 -2.91119814E-02 -4.59702442E+00  7.96826916E-01
 -2.48447871E-01  4.80152633E+00  7.72061287E-01 -2.27941192E-02 -2.25682816E+00
  4.88688336E+00 -2.42365725E-01  5.36740365E+00  5.18446838E+00 -5.91930432E-02
  3.00558974E-02 -5.60090521E+00  1.39321339E+00
Force Field                                I                0
Int Atom Types                             I   N=          16
           0           0           0           0           0           0
           0           0           0           0           0           0
           0           0           0           0
MM charges                                 R   N=          16
  0.00000000E+00  0.00000000E+00  0.00000000E+00  0.00000000E+00  0.00000000E+00
  0.00000000E+00  0.00000000E+00  0.00000000E+00  0.00000000E+00  0.00000000E+00
  0.00000000E+00  0.00000000E+00  0.00000000E+00  0.00000000E+00  0.00000000E+00
  0.00000000E+00
Integer atomic weights                     I   N=          16
          32          16          16          12          12          12
          12          12          12          12           1           1
           1           1           1           1
Real atomic weights                        R   N=          16
  3.19720718E+01  1.59949146E+01  1.59949146E+01  1.20000000E+01  1.20000000E+01
  1.20000000E+01  1.20000000E+01  1.20000000E+01  1.20000000E+01  1.20000000E+01
  1.00782504E+00  1.00782504E+00  1.00782504E+00  1.00782504E+00  1.00782504E+00
  1.00782504E+00
Atom fragment info                         I   N=          16
           0           0           0           0           0           0
           0           0           0           0           0           0
           0           0           0           0
Atom residue num                           I   N=          16
           0           0           0           0           0           0
           0           0           0           0           0           0
           0           0           0           0
Nuclear spins                              I   N=          16
           0           0           0           0           0           0
           0           0           0           0           1           1
           1           1           1           1
Nuclear ZEff                               R   N=          16
 -1.36000000E+01 -5.60000000E+00 -5.60000000E+00 -3.60000000E+00 -3.60000000E+00
 -3.60000000E+00 -3.60000000E+00 -3.60000000E+00 -3.60000000E+00 -3.60000000E+00
 -1.00000000E+00 -1.00000000E+00 -1.00000000E+00 -1.00000000E+00 -1.00000000E+00
 -1.00000000E+00
Nuclear ZNuc                               R   N=          16
  1.60000000E+01  8.00000000E+00  8.00000000E+00  6.00000000E+00  6.00000000E+00
  6.00000000E+00  6.00000000E+00  6.00000000E+00  6.00000000E+00  6.00000000E+00
  1.00000000E+00  1.00000000E+00  1.00000000E+00  1.00000000E+00  1.00000000E+00
  1.00000000E+00
Nuclear QMom                               R   N=          16
  0.00000000E+00  0.00000000E+00  0.00000000E+00  0.00000000E+00  0.00000000E+00
  0.00000000E+00  0.00000000E+00  0.00000000E+00  0.00000000E+00  0.00000000E+00
  0.00000000E+00  0.00000000E+00  0.00000000E+00  0.00000000E+00  0.00000000E+00
  0.00000000E+00
Nuclear GFac                               R   N=          16
  0.00000000E+00  0.00000000E+00  0.00000000E+00  0.00000000E+00  0.00000000E+00
  0.00000000E+00  0.00000000E+00  0.00000000E+00  0.00000000E+00  0.00000000E+00
  2.79284600E+00  2.79284600E+00  2.79284600E+00  2.79284600E+00  2.79284600E+00
  2.79284600E+00
MicOpt                                     I   N=          16
          -1          -1          -1          -1          -1          -1
          -1          -1          -1          -1          -1          -1
          -1          -1          -1          -1
Number of contracted shells                I               80
Number of primitive shells                 I              156
Pure/Cartesian d shells                    I                0
Pure/Cartesian f shells                    I                0
Highest angular momentum                   I                2
Largest degree of contraction              I                5
Shell types                                I   N=          80
           0           0           0           0           1           1
           1          -2           0           0           0           1
           1          -2           0           0           0           1
           1          -2           0           0           0           1
           1          -2           0           0           0           1
           1          -2           0           0           0           1
           1          -2           0           0           0           1
           1          -2           0           0           0           1
           1          -2           0           0           0           1
           1          -2           0           0           0           1
           1          -2           0           0           1           0
           0           1           0           0           1           0
           0           1           0           0           1           0
           0           1
Number of primitives per shell             I   N=          80
           5           3           1           1           5           1
           1           1           5           1           1           3
           1           1           5           1           1           3
           1           1           5           1           1           3
           1           1           5           1           1           3
           1           1           5           1           1           3
           1           1           5           1           1           3
           1           1           5           1           1           3
           1           1           5           1           1           3
           1           1           5           1           1           3
           1           1           3           1           1           3
           1           1           3           1           1           3
           1           1           3           1           1           3
           1           1
Shell to atom map                          I   N=          80
           1           1           1           1           1           1
           1           1           2           2           2           2
           2           2           3           3           3           3
           3           3           4           4           4           4
           4           4           5           5           5           5
           5           5           6           6           6           6
           6           6           7           7           7           7
           7           7           8           8           8           8
           8           8           9           9           9           9
           9           9          10          10          10          10
          10          10          11          11          11          12
          12          12          13          13          13          14
          14          14          15          15          15          16
          16          16
Primitive exponents                        R   N=         156
  9.18493030E+03  1.38151055E+03  3.13871476E+02  8.80538706E+01  2.70399149E+01
  4.56487313E+01  4.96645223E+00  2.01162420E+00  3.56610770E-01  1.35072215E-01
  2.61982334E+02  6.13068947E+01  1.91037299E+01  6.65677204E+00  2.39596352E+00
  6.17761617E-01  1.69933769E-01  5.50000000E-01  2.26617678E+03  3.40870102E+02
  7.73631352E+01  2.14796449E+01  6.65894331E+00  8.09759757E-01  2.55307722E-01
  1.77215043E+01  3.86355054E+00  1.04809209E+00  2.76415444E-01  1.20000000E+00
  2.26617678E+03  3.40870102E+02  7.73631352E+01  2.14796449E+01  6.65894331E+00
  8.09759757E-01  2.55307722E-01  1.77215043E+01  3.86355054E+00  1.04809209E+00
  2.76415444E-01  1.20000000E+00  1.23840169E+03  1.86290050E+02  4.22511763E+01
  1.16765579E+01  3.59305065E+00  4.02451474E-01  1.30901827E-01  9.46809706E+00
  2.01035451E+00  5.47710047E-01  1.52686138E-01  8.00000000E-01  1.23840169E+03
  1.86290050E+02  4.22511763E+01  1.16765579E+01  3.59305065E+00  4.02451474E-01
  1.30901827E-01  9.46809706E+00  2.01035451E+00  5.47710047E-01  1.52686138E-01
  8.00000000E-01  1.23840169E+03  1.86290050E+02  4.22511763E+01  1.16765579E+01
  3.59305065E+00  4.02451474E-01  1.30901827E-01  9.46809706E+00  2.01035451E+00
  5.47710047E-01  1.52686138E-01  8.00000000E-01  1.23840169E+03  1.86290050E+02
  4.22511763E+01  1.16765579E+01  3.59305065E+00  4.02451474E-01  1.30901827E-01
  9.46809706E+00  2.01035451E+00  5.47710047E-01  1.52686138E-01  8.00000000E-01
  1.23840169E+03  1.86290050E+02  4.22511763E+01  1.16765579E+01  3.59305065E+00
  4.02451474E-01  1.30901827E-01  9.46809706E+00  2.01035451E+00  5.47710047E-01
  1.52686138E-01  8.00000000E-01  1.23840169E+03  1.86290050E+02  4.22511763E+01
  1.16765579E+01  3.59305065E+00  4.02451474E-01  1.30901827E-01  9.46809706E+00
  2.01035451E+00  5.47710047E-01  1.52686138E-01  8.00000000E-01  1.23840169E+03
  1.86290050E+02  4.22511763E+01  1.16765579E+01  3.59305065E+00  4.02451474E-01
  1.30901827E-01  9.46809706E+00  2.01035451E+00  5.47710047E-01  1.52686138E-01
  8.00000000E-01  1.30107010E+01  1.96225720E+00  4.44537960E-01  1.21949620E-01
  8.00000000E-01  1.30107010E+01  1.96225720E+00  4.44537960E-01  1.21949620E-01
  8.00000000E-01  1.30107010E+01  1.96225720E+00  4.44537960E-01  1.21949620E-01
  8.00000000E-01  1.30107010E+01  1.96225720E+00  4.44537960E-01  1.21949620E-01
  8.00000000E-01  1.30107010E+01  1.96225720E+00  4.44537960E-01  1.21949620E-01
  8.00000000E-01  1.30107010E+01  1.96225720E+00  4.44537960E-01  1.21949620E-01
  8.00000000E-01
Contraction coefficients                   R   N=         156
 -5.47294661E-03 -4.09544022E-02 -1.84758290E-01 -4.75672806E-01 -4.34951536E-01
 -9.19040458E-02  5.56987772E-01  5.11154683E-01  1.00000000E+00  1.00000000E+00
 -9.18305466E-03 -6.59022265E-02 -2.45877845E-01 -4.82314711E-01 -3.89563144E-01
  1.00000000E+00  1.00000000E+00  1.00000000E+00 -5.38935039E-03 -4.02347214E-02
 -1.80081842E-01 -4.68288577E-01 -4.46926172E-01  1.00000000E+00  1.00000000E+00
  6.26302488E-02  3.33311385E-01  7.41486383E-01  1.00000000E+00  1.00000000E+00
 -5.38935039E-03 -4.02347214E-02 -1.80081842E-01 -4.68288577E-01 -4.46926172E-01
  1.00000000E+00  1.00000000E+00  6.26302488E-02  3.33311385E-01  7.41486383E-01
  1.00000000E+00  1.00000000E+00  5.51736505E-03  4.10888286E-02  1.82253821E-01
  4.68284594E-01  4.45758173E-01  1.00000000E+00  1.00000000E+00  5.68883320E-02
  3.12940593E-01  7.60650165E-01  1.00000000E+00  1.00000000E+00  5.51736505E-03
  4.10888286E-02  1.82253821E-01  4.68284594E-01  4.45758173E-01  1.00000000E+00
  1.00000000E+00  5.68883320E-02  3.12940593E-01  7.60650165E-01  1.00000000E+00
  1.00000000E+00  5.51736505E-03  4.10888286E-02  1.82253821E-01  4.68284594E-01
  4.45758173E-01  1.00000000E+00  1.00000000E+00  5.68883320E-02  3.12940593E-01
  7.60650165E-01  1.00000000E+00  1.00000000E+00  5.51736505E-03  4.10888286E-02
  1.82253821E-01  4.68284594E-01  4.45758173E-01  1.00000000E+00  1.00000000E+00
  5.68883320E-02  3.12940593E-01  7.60650165E-01  1.00000000E+00  1.00000000E+00
  5.51736505E-03  4.10888286E-02  1.82253821E-01  4.68284594E-01  4.45758173E-01
  1.00000000E+00  1.00000000E+00  5.68883320E-02  3.12940593E-01  7.60650165E-01
  1.00000000E+00  1.00000000E+00  5.51736505E-03  4.10888286E-02  1.82253821E-01
  4.68284594E-01  4.45758173E-01  1.00000000E+00  1.00000000E+00  5.68883320E-02
  3.12940593E-01  7.60650165E-01  1.00000000E+00  1.00000000E+00  5.51736505E-03
  4.10888286E-02  1.82253821E-01  4.68284594E-01  4.45758173E-01  1.00000000E+00
  1.00000000E+00  5.68883320E-02  3.12940593E-01  7.60650165E-01  1.00000000E+00
  1.00000000E+00  3.34854848E-02  2.34721871E-01  8.13770285E-01  1.00000000E+00
  1.00000000E+00  3.34854848E-02  2.34721871E-01  8.13770285E-01  1.00000000E+00
  1.00000000E+00  3.34854848E-02  2.34721871E-01  8.13770285E-01  1.00000000E+00
  1.00000000E+00  3.34854848E-02  2.34721871E-01  8.13770285E-01  1.00000000E+00
  1.00000000E+00  3.34854848E-02  2.34721871E-01  8.13770285E-01  1.00000000E+00
  1.00000000E+00  3.34854848E-02  2.34721871E-01  8.13770285E-01  1.00000000E+00
  1.00000000E+00
Coordinates of each shell                  R   N=         240
  2.97802397E+00  6.08396637E+00 -1.21715602E-01  2.97802397E+00  6.08396637E+00
 -1.21715602E-01  2.97802397E+00  6.08396637E+00 -1.21715602E-01  2.97802397E+00
  6.08396637E+00 -1.21715602E-01  2.97802397E+00  6.08396637E+00 -1.21715602E-01
  2.97802397E+00  6.08396637E+00 -1.21715602E-01  2.97802397E+00  6.08396637E+00
 -1.21715602E-01  2.97802397E+00  6.08396637E+00 -1.21715602E-01 -1.60546720E+00
 -5.99925730E+00  6.82801569E-01 -1.60546720E+00 -5.99925730E+00  6.82801569E-01
 -1.60546720E+00 -5.99925730E+00  6.82801569E-01 -1.60546720E+00 -5.99925730E+00
  6.82801569E-01 -1.60546720E+00 -5.99925730E+00  6.82801569E-01 -1.60546720E+00
 -5.99925730E+00  6.82801569E-01 -4.97375675E+00 -3.92549288E+00 -7.08724093E-01
 -4.97375675E+00 -3.92549288E+00 -7.08724093E-01 -4.97375675E+00 -3.92549288E+00
 -7.08724093E-01 -4.97375675E+00 -3.92549288E+00 -7.08724093E-01 -4.97375675E+00
 -3.92549288E+00 -7.08724093E-01 -4.97375675E+00 -3.92549288E+00 -7.08724093E-01
 -1.24851925E+00 -1.48839405E+00 -5.91403755E-02 -1.24851925E+00 -1.48839405E+00
 -5.91403755E-02 -1.24851925E+00 -1.48839405E+00 -5.91403755E-02 -1.24851925E+00
 -1.48839405E+00 -5.91403755E-02 -1.24851925E+00 -1.48839405E+00 -5.91403755E-02
 -1.24851925E+00 -1.48839405E+00 -5.91403755E-02  1.40171926E+00 -1.46522521E+00
 -1.78514149E-02  1.40171926E+00 -1.46522521E+00 -1.78514149E-02  1.40171926E+00
 -1.46522521E+00 -1.78514149E-02  1.40171926E+00 -1.46522521E+00 -1.78514149E-02
  1.40171926E+00 -1.46522521E+00 -1.78514149E-02  1.40171926E+00 -1.46522521E+00
 -1.78514149E-02 -2.53660506E+00  8.28359818E-01 -1.69723560E-01 -2.53660506E+00
  8.28359818E-01 -1.69723560E-01 -2.53660506E+00  8.28359818E-01 -1.69723560E-01
 -2.53660506E+00  8.28359818E-01 -1.69723560E-01 -2.53660506E+00  8.28359818E-01
 -1.69723560E-01 -2.53660506E+00  8.28359818E-01 -1.69723560E-01  1.43572219E+00
  3.11403290E+00 -1.05914703E-01  1.43572219E+00  3.11403290E+00 -1.05914703E-01
  1.43572219E+00  3.11403290E+00 -1.05914703E-01  1.43572219E+00  3.11403290E+00
 -1.05914703E-01  1.43572219E+00  3.11403290E+00 -1.05914703E-01  1.43572219E+00
  3.11403290E+00 -1.05914703E-01  2.73821892E+00  8.03638906E-01 -3.97600472E-02
  2.73821892E+00  8.03638906E-01 -3.97600472E-02  2.73821892E+00  8.03638906E-01
 -3.97600472E-02  2.73821892E+00  8.03638906E-01 -3.97600472E-02  2.73821892E+00
  8.03638906E-01 -3.97600472E-02  2.73821892E+00  8.03638906E-01 -3.97600472E-02
 -1.22311002E+00  3.10119002E+00 -1.75427291E-01 -1.22311002E+00  3.10119002E+00
 -1.75427291E-01 -1.22311002E+00  3.10119002E+00 -1.75427291E-01 -1.22311002E+00
  3.10119002E+00 -1.75427291E-01 -1.22311002E+00  3.10119002E+00 -1.75427291E-01
 -1.22311002E+00  3.10119002E+00 -1.75427291E-01 -2.79139253E+00 -3.86248163E+00
 -7.54671865E-02 -2.79139253E+00 -3.86248163E+00 -7.54671865E-02 -2.79139253E+00
 -3.86248163E+00 -7.54671865E-02 -2.79139253E+00 -3.86248163E+00 -7.54671865E-02
 -2.79139253E+00 -3.86248163E+00 -7.54671865E-02 -2.79139253E+00 -3.86248163E+00
 -7.54671865E-02  2.47946625E+00 -3.22929373E+00 -2.91119814E-02  2.47946625E+00
 -3.22929373E+00 -2.91119814E-02  2.47946625E+00 -3.22929373E+00 -2.91119814E-02
 -4.59702442E+00  7.96826916E-01 -2.48447871E-01 -4.59702442E+00  7.96826916E-01
 -2.48447871E-01 -4.59702442E+00  7.96826916E-01 -2.48447871E-01  4.80152633E+00
  7.72061287E-01 -2.27941192E-02  4.80152633E+00  7.72061287E-01 -2.27941192E-02
  4.80152633E+00  7.72061287E-01 -2.27941192E-02 -2.25682816E+00  4.88688336E+00
 -2.42365725E-01 -2.25682816E+00  4.88688336E+00 -2.42365725E-01 -2.25682816E+00
  4.88688336E+00 -2.42365725E-01  5.36740365E+00  5.18446838E+00 -5.91930432E-02
  5.36740365E+00  5.18446838E+00 -5.91930432E-02  5.36740365E+00  5.18446838E+00
 -5.91930432E-02  3.00558974E-02 -5.60090521E+00  1.39321339E+00  3.00558974E-02
 -5.60090521E+00  1.39321339E+00  3.00558974E-02 -5.60090521E+00  1.39321339E+00
Constraint Structure                       R   N=          48
  2.97802397E+00  6.08396637E+00 -1.21715602E-01 -1.60546720E+00 -5.99925730E+00
  6.82801569E-01 -4.97375675E+00 -3.92549288E+00 -7.08724093E-01 -1.24851925E+00
 -1.48839405E+00 -5.91403755E-02  1.40171926E+00 -1.46522521E+00 -1.78514149E-02
 -2.53660506E+00  8.28359818E-01 -1.69723560E-01  1.43572219E+00  3.11403290E+00
 -1.05914703E-01  2.73821892E+00  8.03638906E-01 -3.97600472E-02 -1.22311002E+00
  3.10119002E+00 -1.75427291E-01 -2.79139253E+00 -3.86248163E+00 -7.54671865E-02
  2.47946625E+00 -3.22929373E+00 -2.91119814E-02 -4.59702442E+00  7.96826916E-01
 -2.48447871E-01  4.80152633E+00  7.72061287E-01 -2.27941192E-02 -2.25682816E+00
  4.88688336E+00 -2.42365725E-01  5.36740365E+00  5.18446838E+00 -5.91930432E-02
  3.00558974E-02 -5.60090521E+00  1.39321339E+00
Num ILSW                                   I              100
ILSW                                       I   N=         100
           0           0           0           0           2           0
           0           0           0           0         402          -1
           5           0           0           0           2           0
           0           0           0           0           1           0
           1           1           0           0           0           0
           0           0      100000           0          -1           0
           0           0           0           0           0           0
           0           0           0           1           0           0
           0           0           1           0           0           0
           0           0         141          41           0           0
           0           0           5           0           0           0
           0           0           0          16           0           0
           0           0           0           0           0           0
           0           0           0           0           0           0
           0           0           0           0           0           0
           0           0           0           0           0           0
           0           0           0           0
Num RLSW                                   I               41
RLSW                                       R   N=          41
  8.00000000E-01  7.20000000E-01  1.00000000E+00  8.10000000E-01  2.00000000E-01
  0.00000000E+00  0.00000000E+00  1.00000000E+00  0.00000000E+00  0.00000000E+00
  0.00000000E+00  0.00000000E+00  1.00000000E+00  0.00000000E+00  0.00000000E+00
  0.00000000E+00  0.00000000E+00  1.00000000E+00  0.00000000E+00  0.00000000E+00
  0.00000000E+00  0.00000000E+00  1.00000000E+00  0.00000000E+00  0.00000000E+00
  0.00000000E+00  0.00000000E+00  1.00000000E+00  0.00000000E+00  0.00000000E+00
  0.00000000E+00  0.00000000E+00  1.00000000E+00  0.00000000E+00  0.00000000E+00
  0.00000000E+00  0.00000000E+00  0.00000000E+00  1.00000000E+00  1.00000000E+00
  0.00000000E+00
ECP-MxAtEC                                 I           250000
ECP-MaxLECP                                I               10
ECP-MaxAtL                                 I          2250000
ECP-MxTECP                                 I         11250000
ECP-LenNCZ                                 I                0
ECP-KFirst                                 I   N=         160
           0           0           0           0           0           0
           0           0           0           0           0           0
           0           0           0           0           0           0
           0           0           0           0           0           0
           0           0           0           0           0           0
           0           0           0           0           0           0
           0           0           0           0           0           0
           0           0           0           0           0           0
           0           0           0           0           0           0
           0           0           0           0           0           0
           0           0           0           0           0           0
           0           0           0           0           0           0
           0           0           0           0           0           0
           0           0           0           0           0           0
           0           0           0           0           0           0
           0           0           0           0           0           0
           0           0           0           0           0           0
           0           0           0           0           0           0
           0           0           0           0           0           0
           0           0           0           0           0           0
           0           0           0           0           0           0
           0           0           0           0           0           0
           0           0           0           0           0           0
           0           0           0           0           0           0
           0           0           0           0           0           0
           0           0           0           0           0           0
           0           0           0           0
ECP-KLast                                  I   N=         160
           0           0           0           0           0           0
           0           0           0           0           0           0
           0           0           0           0           0           0
           0           0           0           0           0           0
           0           0           0           0           0           0
           0           0           0           0           0           0
           0           0           0           0           0           0
           0           0           0           0           0           0
           0           0           0           0           0           0
           0           0           0           0           0           0
           0           0           0           0           0           0
           0           0           0           0           0           0
           0           0           0           0           0           0
           0           0           0           0           0           0
           0           0           0           0           0           0
           0           0           0           0           0           0
           0           0           0           0           0           0
           0           0           0           0           0           0
           0           0           0           0           0           0
           0           0           0           0           0           0
           0           0           0           0           0           0
           0           0           0           0           0           0
           0           0           0           0           0           0
           0           0           0           0           0           0
           0           0           0           0           0           0
           0           0           0           0           0           0
           0           0           0           0
ECP-LMax                                   I   N=          16
           0           0           0           0           0           0
           0           0           0           0           0           0
           0           0           0           0
ECP-LPSkip                                 I   N=          16
           1           1           1           1           1           1
           1           1           1           1           1           1
           1           1           1           1
ECP-RNFroz                                 R   N=          16
  0.00000000E+00  0.00000000E+00  0.00000000E+00  0.00000000E+00  0.00000000E+00
  0.00000000E+00  0.00000000E+00  0.00000000E+00  0.00000000E+00  0.00000000E+00
  0.00000000E+00  0.00000000E+00  0.00000000E+00  0.00000000E+00  0.00000000E+00
  0.00000000E+00
ECP-NLP                                    I                0
ECP-CLP1                                   R      0.000000000000000E+00
ECP-CLP2                                   R      0.000000000000000E+00
ECP-ZLP                                    R      0.000000000000000E+00
MxBond                                     I                3
NBond                                      I   N=          16
           2           2           1           3           3           3
           3           3           3           3           1           1
           1           1           1           1
IBond                                      I   N=          48
           7          15           0          10          16           0
          10           0           0           5           6          10
           4           8          11           4           9          12
           1           8           9           5           7          13
           6           7          14           2           3           4
           5           0           0           6           0           0
           8           0           0           9           0           0
           1           0           0           2           0           0
RBond                                      R   N=          48
  1.00000000E+00  1.00000000E+00  0.00000000E+00  1.50000000E+00  1.00000000E+00
  0.00000000E+00  2.00000000E+00  0.00000000E+00  0.00000000E+00  1.50000000E+00
  1.50000000E+00  1.00000000E+00  1.50000000E+00  1.50000000E+00  1.00000000E+00
  1.50000000E+00  1.50000000E+00  1.00000000E+00  1.00000000E+00  1.50000000E+00
  1.50000000E+00  1.50000000E+00  1.50000000E+00  1.00000000E+00  1.50000000E+00
  1.50000000E+00  1.00000000E+00  1.50000000E+00  2.00000000E+00  1.00000000E+00
  1.00000000E+00  0.00000000E+00  0.00000000E+00  1.00000000E+00  0.00000000E+00
  0.00000000E+00  1.00000000E+00  0.00000000E+00  0.00000000E+00  1.00000000E+00
  0.00000000E+00  0.00000000E+00  1.00000000E+00  0.00000000E+00  0.00000000E+00
  1.00000000E+00  0.00000000E+00  0.00000000E+00
Virial Ratio                               R      2.006131922604812E+00
SCF Energy                                 R     -8.186251288975658E+02
Total Energy                               R     -8.186251288975658E+02
RMS Force                                  R      4.863961414295242E-07
RMS Density                                R      3.522683219170175E-09
Job Status                                 I                1
Nuclear derivative order                   I                2
External E-field                           R   N=          35
  0.00000000E+00  0.00000000E+00  0.00000000E+00  0.00000000E+00  0.00000000E+00
  0.00000000E+00  0.00000000E+00  0.00000000E+00  0.00000000E+00  0.00000000E+00
  0.00000000E+00  0.00000000E+00  0.00000000E+00  0.00000000E+00  0.00000000E+00
  0.00000000E+00  0.00000000E+00  0.00000000E+00  0.00000000E+00  0.00000000E+00
  0.00000000E+00  0.00000000E+00  0.00000000E+00  0.00000000E+00  0.00000000E+00
  0.00000000E+00  0.00000000E+00  0.00000000E+00  0.00000000E+00  0.00000000E+00
  0.00000000E+00  0.00000000E+00  0.00000000E+00  0.00000000E+00  0.00000000E+00
IOpCl                                      I                0
IROHF                                      I                0