comment                                                                 
Freq      RB3LYP                                                      def2SVP             
Number of atoms                            I               16
Info1-9                                    I   N=           9
          10           5           0           0           0         100
           6          18        -502
Charge                                     I                0
Multiplicity                               I                1
Number of electrons                        I               56
Number of alpha electrons                  I               28
Number of beta electrons                   I               28
Number of basis functions                  I              138
Number of independent functions            I              138
Number of point charges in /Mol/           I                0
Number of translation vectors              I                0
Atomic numbers                             I   N=          16
          16           6           6           6           6           6
           1           1           1           1           1           1
           1           1           1           1
Nuclear charges                            R   N=          16
  1.60000000E+01  6.00000000E+00  6.00000000E+00  6.00000000E+00  6.00000000E+00
  6.00000000E+00  1.00000000E+00  1.00000000E+00  1.00000000E+00  1.00000000E+00
  1.00000000E+00  1.00000000E+00  1.00000000E+00  1.00000000E+00  1.00000000E+00
  1.00000000E+00
Current cartesian coordinates              R   N=          48
 -2.30759480E+00 -2.80667521E+00 -3.68081406E+00 -1.15150498E+00 -1.38908462E+00
 -7.36763704E-01  1.73494191E+00 -1.61469141E+00 -5.48361938E-01 -1.59371356E+00
  1.45654052E+00 -4.49048103E-01  2.48453574E+00  3.38034499E-01  1.49553324E+00
  2.16051420E-01  2.20003207E+00  1.70452890E+00 -2.02807248E+00 -2.40154624E+00
  8.60050502E-01  2.36151876E+00 -3.54879055E+00 -1.16294944E-01  2.56363764E+00
 -1.09248476E+00 -2.38875366E+00 -3.58162196E+00  1.93722419E+00 -6.58744504E-02
 -1.05608450E+00  2.39241161E+00 -2.23152994E+00  4.24821301E+00  1.31351222E+00
  9.84462548E-01  2.83379167E+00 -5.97162444E-01  3.32049560E+00  7.99918034E-01
  4.19194584E+00  1.58269242E+00 -7.34097797E-01  1.96780939E+00  3.54234683E+00
 -4.78991811E+00 -2.34707511E+00 -3.27266924E+00
Force Field                                I                0
Int Atom Types                             I   N=          16
           0           0           0           0           0           0
           0           0           0           0           0           0
           0           0           0           0
MM charges                                 R   N=          16
  0.00000000E+00  0.00000000E+00  0.00000000E+00  0.00000000E+00  0.00000000E+00
  0.00000000E+00  0.00000000E+00  0.00000000E+00  0.00000000E+00  0.00000000E+00
  0.00000000E+00  0.00000000E+00  0.00000000E+00  0.00000000E+00  0.00000000E+00
  0.00000000E+00
Integer atomic weights                     I   N=          16
          32          12          12          12          12          12
           1           1           1           1           1           1
           1           1           1           1
Real atomic weights                        R   N=          16
  3.19720718E+01  1.20000000E+01  1.20000000E+01  1.20000000E+01  1.20000000E+01
  1.20000000E+01  1.00782504E+00  1.00782504E+00  1.00782504E+00  1.00782504E+00
  1.00782504E+00  1.00782504E+00  1.00782504E+00  1.00782504E+00  1.00782504E+00
  1.00782504E+00
Atom fragment info                         I   N=          16
           0           0           0           0           0           0
           0           0           0           0           0           0
           0           0           0           0
Atom residue num                           I   N=          16
           0           0           0           0           0           0
           0           0           0           0           0           0
           0           0           0           0
Nuclear spins                              I   N=          16
           0           0           0           0           0           0
           1           1           1           1           1           1
           1           1           1           1
Nuclear ZEff                               R   N=          16
 -1.36000000E+01 -3.60000000E+00 -3.60000000E+00 -3.60000000E+00 -3.60000000E+00
 -3.60000000E+00 -1.00000000E+00 -1.00000000E+00 -1.00000000E+00 -1.00000000E+00
 -1.00000000E+00 -1.00000000E+00 -1.00000000E+00 -1.00000000E+00 -1.00000000E+00
 -1.00000000E+00
Nuclear ZNuc                               R   N=          16
  1.60000000E+01  6.00000000E+00  6.00000000E+00  6.00000000E+00  6.00000000E+00
  6.00000000E+00  1.00000000E+00  1.00000000E+00  1.00000000E+00  1.00000000E+00
  1.00000000E+00  1.00000000E+00  1.00000000E+00  1.00000000E+00  1.00000000E+00
  1.00000000E+00
Nuclear QMom                               R   N=          16
  0.00000000E+00  0.00000000E+00  0.00000000E+00  0.00000000E+00  0.00000000E+00
  0.00000000E+00  0.00000000E+00  0.00000000E+00  0.00000000E+00  0.00000000E+00
  0.00000000E+00  0.00000000E+00  0.00000000E+00  0.00000000E+00  0.00000000E+00
  0.00000000E+00
Nuclear GFac                               R   N=          16
  0.00000000E+00  0.00000000E+00  0.00000000E+00  0.00000000E+00  0.00000000E+00
  0.00000000E+00  2.79284600E+00  2.79284600E+00  2.79284600E+00  2.79284600E+00
  2.79284600E+00  2.79284600E+00  2.79284600E+00  2.79284600E+00  2.79284600E+00
  2.79284600E+00
MicOpt                                     I   N=          16
          -1          -1          -1          -1          -1          -1
          -1          -1          -1          -1          -1          -1
          -1          -1          -1          -1
Number of contracted shells                I               68
Number of primitive shells                 I              128
Pure/Cartesian d shells                    I                0
Pure/Cartesian f shells                    I                0
Highest angular momentum                   I                2
Largest degree of contraction              I                5
Shell types                                I   N=          68
           0           0           0           0           1           1
           1          -2           0           0           0           1
           1          -2           0           0           0           1
           1          -2           0           0           0           1
           1          -2           0           0           0           1
           1          -2           0           0           0           1
           1          -2           0           0           1           0
           0           1           0           0           1           0
           0           1           0           0           1           0
           0           1           0           0           1           0
           0           1           0           0           1           0
           0           1
Number of primitives per shell             I   N=          68
           5           3           1           1           5           1
           1           1           5           1           1           3
           1           1           5           1           1           3
           1           1           5           1           1           3
           1           1           5           1           1           3
           1           1           5           1           1           3
           1           1           3           1           1           3
           1           1           3           1           1           3
           1           1           3           1           1           3
           1           1           3           1           1           3
           1           1           3           1           1           3
           1           1
Shell to atom map                          I   N=          68
           1           1           1           1           1           1
           1           1           2           2           2           2
           2           2           3           3           3           3
           3           3           4           4           4           4
           4           4           5           5           5           5
           5           5           6           6           6           6
           6           6           7           7           7           8
           8           8           9           9           9          10
          10          10          11          11          11          12
          12          12          13          13          13          14
          14          14          15          15          15          16
          16          16
Primitive exponents                        R   N=         128
  9.18493030E+03  1.38151055E+03  3.13871476E+02  8.80538706E+01  2.70399149E+01
  4.56487313E+01  4.96645223E+00  2.01162420E+00  3.56610770E-01  1.35072215E-01
  2.61982334E+02  6.13068947E+01  1.91037299E+01  6.65677204E+00  2.39596352E+00
  6.17761617E-01  1.69933769E-01  5.50000000E-01  1.23840169E+03  1.86290050E+02
  4.22511763E+01  1.16765579E+01  3.59305065E+00  4.02451474E-01  1.30901827E-01
  9.46809706E+00  2.01035451E+00  5.47710047E-01  1.52686138E-01  8.00000000E-01
  1.23840169E+03  1.86290050E+02  4.22511763E+01  1.16765579E+01  3.59305065E+00
  4.02451474E-01  1.30901827E-01  9.46809706E+00  2.01035451E+00  5.47710047E-01
  1.52686138E-01  8.00000000E-01  1.23840169E+03  1.86290050E+02  4.22511763E+01
  1.16765579E+01  3.59305065E+00  4.02451474E-01  1.30901827E-01  9.46809706E+00
  2.01035451E+00  5.47710047E-01  1.52686138E-01  8.00000000E-01  1.23840169E+03
  1.86290050E+02  4.22511763E+01  1.16765579E+01  3.59305065E+00  4.02451474E-01
  1.30901827E-01  9.46809706E+00  2.01035451E+00  5.47710047E-01  1.52686138E-01
  8.00000000E-01  1.23840169E+03  1.86290050E+02  4.22511763E+01  1.16765579E+01
  3.59305065E+00  4.02451474E-01  1.30901827E-01  9.46809706E+00  2.01035451E+00
  5.47710047E-01  1.52686138E-01  8.00000000E-01  1.30107010E+01  1.96225720E+00
  4.44537960E-01  1.21949620E-01  8.00000000E-01  1.30107010E+01  1.96225720E+00
  4.44537960E-01  1.21949620E-01  8.00000000E-01  1.30107010E+01  1.96225720E+00
  4.44537960E-01  1.21949620E-01  8.00000000E-01  1.30107010E+01  1.96225720E+00
  4.44537960E-01  1.21949620E-01  8.00000000E-01  1.30107010E+01  1.96225720E+00
  4.44537960E-01  1.21949620E-01  8.00000000E-01  1.30107010E+01  1.96225720E+00
  4.44537960E-01  1.21949620E-01  8.00000000E-01  1.30107010E+01  1.96225720E+00
  4.44537960E-01  1.21949620E-01  8.00000000E-01  1.30107010E+01  1.96225720E+00
  4.44537960E-01  1.21949620E-01  8.00000000E-01  1.30107010E+01  1.96225720E+00
  4.44537960E-01  1.21949620E-01  8.00000000E-01  1.30107010E+01  1.96225720E+00
  4.44537960E-01  1.21949620E-01  8.00000000E-01
Contraction coefficients                   R   N=         128
 -5.47294661E-03 -4.09544022E-02 -1.84758290E-01 -4.75672806E-01 -4.34951536E-01
 -9.19040458E-02  5.56987772E-01  5.11154683E-01  1.00000000E+00  1.00000000E+00
 -9.18305466E-03 -6.59022265E-02 -2.45877845E-01 -4.82314711E-01 -3.89563144E-01
  1.00000000E+00  1.00000000E+00  1.00000000E+00  5.51736505E-03  4.10888286E-02
  1.82253821E-01  4.68284594E-01  4.45758173E-01  1.00000000E+00  1.00000000E+00
  5.68883320E-02  3.12940593E-01  7.60650165E-01  1.00000000E+00  1.00000000E+00
  5.51736505E-03  4.10888286E-02  1.82253821E-01  4.68284594E-01  4.45758173E-01
  1.00000000E+00  1.00000000E+00  5.68883320E-02  3.12940593E-01  7.60650165E-01
  1.00000000E+00  1.00000000E+00  5.51736505E-03  4.10888286E-02  1.82253821E-01
  4.68284594E-01  4.45758173E-01  1.00000000E+00  1.00000000E+00  5.68883320E-02
  3.12940593E-01  7.60650165E-01  1.00000000E+00  1.00000000E+00  5.51736505E-03
  4.10888286E-02  1.82253821E-01  4.68284594E-01  4.45758173E-01  1.00000000E+00
  1.00000000E+00  5.68883320E-02  3.12940593E-01  7.60650165E-01  1.00000000E+00
  1.00000000E+00  5.51736505E-03  4.10888286E-02  1.82253821E-01  4.68284594E-01
  4.45758173E-01  1.00000000E+00  1.00000000E+00  5.68883320E-02  3.12940593E-01
  7.60650165E-01  1.00000000E+00  1.00000000E+00  3.34854848E-02  2.34721871E-01
  8.13770285E-01  1.00000000E+00  1.00000000E+00  3.34854848E-02  2.34721871E-01
  8.13770285E-01  1.00000000E+00  1.00000000E+00  3.34854848E-02  2.34721871E-01
  8.13770285E-01  1.00000000E+00  1.00000000E+00  3.34854848E-02  2.34721871E-01
  8.13770285E-01  1.00000000E+00  1.00000000E+00  3.34854848E-02  2.34721871E-01
  8.13770285E-01  1.00000000E+00  1.00000000E+00  3.34854848E-02  2.34721871E-01
  8.13770285E-01  1.00000000E+00  1.00000000E+00  3.34854848E-02  2.34721871E-01
  8.13770285E-01  1.00000000E+00  1.00000000E+00  3.34854848E-02  2.34721871E-01
  8.13770285E-01  1.00000000E+00  1.00000000E+00  3.34854848E-02  2.34721871E-01
  8.13770285E-01  1.00000000E+00  1.00000000E+00  3.34854848E-02  2.34721871E-01
  8.13770285E-01  1.00000000E+00  1.00000000E+00
Coordinates of each shell                  R   N=         204
 -2.30759480E+00 -2.80667521E+00 -3.68081406E+00 -2.30759480E+00 -2.80667521E+00
 -3.68081406E+00 -2.30759480E+00 -2.80667521E+00 -3.68081406E+00 -2.30759480E+00
 -2.80667521E+00 -3.68081406E+00 -2.30759480E+00 -2.80667521E+00 -3.68081406E+00
 -2.30759480E+00 -2.80667521E+00 -3.68081406E+00 -2.30759480E+00 -2.80667521E+00
 -3.68081406E+00 -2.30759480E+00 -2.80667521E+00 -3.68081406E+00 -1.15150498E+00
 -1.38908462E+00 -7.36763704E-01 -1.15150498E+00 -1.38908462E+00 -7.36763704E-01
 -1.15150498E+00 -1.38908462E+00 -7.36763704E-01 -1.15150498E+00 -1.38908462E+00
 -7.36763704E-01 -1.15150498E+00 -1.38908462E+00 -7.36763704E-01 -1.15150498E+00
 -1.38908462E+00 -7.36763704E-01  1.73494191E+00 -1.61469141E+00 -5.48361938E-01
  1.73494191E+00 -1.61469141E+00 -5.48361938E-01  1.73494191E+00 -1.61469141E+00
 -5.48361938E-01  1.73494191E+00 -1.61469141E+00 -5.48361938E-01  1.73494191E+00
 -1.61469141E+00 -5.48361938E-01  1.73494191E+00 -1.61469141E+00 -5.48361938E-01
 -1.59371356E+00  1.45654052E+00 -4.49048103E-01 -1.59371356E+00  1.45654052E+00
 -4.49048103E-01 -1.59371356E+00  1.45654052E+00 -4.49048103E-01 -1.59371356E+00
  1.45654052E+00 -4.49048103E-01 -1.59371356E+00  1.45654052E+00 -4.49048103E-01
 -1.59371356E+00  1.45654052E+00 -4.49048103E-01  2.48453574E+00  3.38034499E-01
  1.49553324E+00  2.48453574E+00  3.38034499E-01  1.49553324E+00  2.48453574E+00
  3.38034499E-01  1.49553324E+00  2.48453574E+00  3.38034499E-01  1.49553324E+00
  2.48453574E+00  3.38034499E-01  1.49553324E+00  2.48453574E+00  3.38034499E-01
  1.49553324E+00  2.16051420E-01  2.20003207E+00  1.70452890E+00  2.16051420E-01
  2.20003207E+00  1.70452890E+00  2.16051420E-01  2.20003207E+00  1.70452890E+00
  2.16051420E-01  2.20003207E+00  1.70452890E+00  2.16051420E-01  2.20003207E+00
  1.70452890E+00  2.16051420E-01  2.20003207E+00  1.70452890E+00 -2.02807248E+00
 -2.40154624E+00  8.60050502E-01 -2.02807248E+00 -2.40154624E+00  8.60050502E-01
 -2.02807248E+00 -2.40154624E+00  8.60050502E-01  2.36151876E+00 -3.54879055E+00
 -1.16294944E-01  2.36151876E+00 -3.54879055E+00 -1.16294944E-01  2.36151876E+00
 -3.54879055E+00 -1.16294944E-01  2.56363764E+00 -1.09248476E+00 -2.38875366E+00
  2.56363764E+00 -1.09248476E+00 -2.38875366E+00  2.56363764E+00 -1.09248476E+00
 -2.38875366E+00 -3.58162196E+00  1.93722419E+00 -6.58744504E-02 -3.58162196E+00
  1.93722419E+00 -6.58744504E-02 -3.58162196E+00  1.93722419E+00 -6.58744504E-02
 -1.05608450E+00  2.39241161E+00 -2.23152994E+00 -1.05608450E+00  2.39241161E+00
 -2.23152994E+00 -1.05608450E+00  2.39241161E+00 -2.23152994E+00  4.24821301E+00
  1.31351222E+00  9.84462548E-01  4.24821301E+00  1.31351222E+00  9.84462548E-01
  4.24821301E+00  1.31351222E+00  9.84462548E-01  2.83379167E+00 -5.97162444E-01
  3.32049560E+00  2.83379167E+00 -5.97162444E-01  3.32049560E+00  2.83379167E+00
 -5.97162444E-01  3.32049560E+00  7.99918034E-01  4.19194584E+00  1.58269242E+00
  7.99918034E-01  4.19194584E+00  1.58269242E+00  7.99918034E-01  4.19194584E+00
  1.58269242E+00 -7.34097797E-01  1.96780939E+00  3.54234683E+00 -7.34097797E-01
  1.96780939E+00  3.54234683E+00 -7.34097797E-01  1.96780939E+00  3.54234683E+00
 -4.78991811E+00 -2.34707511E+00 -3.27266924E+00 -4.78991811E+00 -2.34707511E+00
 -3.27266924E+00 -4.78991811E+00 -2.34707511E+00 -3.27266924E+00
Constraint Structure                       R   N=          48
 -2.30759480E+00 -2.80667521E+00 -3.68081406E+00 -1.15150498E+00 -1.38908462E+00
 -7.36763704E-01  1.73494191E+00 -1.61469141E+00 -5.48361938E-01 -1.59371356E+00
  1.45654052E+00 -4.49048103E-01  2.48453574E+00  3.38034499E-01  1.49553324E+00
  2.16051420E-01  2.20003207E+00  1.70452890E+00 -2.02807248E+00 -2.40154624E+00
  8.60050502E-01  2.36151876E+00 -3.54879055E+00 -1.16294944E-01  2.56363764E+00
 -1.09248476E+00 -2.38875366E+00 -3.58162196E+00  1.93722419E+00 -6.58744504E-02
 -1.05608450E+00  2.39241161E+00 -2.23152994E+00  4.24821301E+00  1.31351222E+00
  9.84462548E-01  2.83379167E+00 -5.97162444E-01  3.32049560E+00  7.99918034E-01
  4.19194584E+00  1.58269242E+00 -7.34097797E-01  1.96780939E+00  3.54234683E+00
 -4.78991811E+00 -2.34707511E+00 -3.27266924E+00
Num ILSW                                   I              100
ILSW                                       I   N=         100
           0           0           0           0           2           0
           0           0           0           0         402          -1
           5           0           0           0           2           0
           0           0           0           0           1           0
           1           1           0           0           0           0
           0           0      100000           0          -1           0
           0           0           0           0           0           0
           0           0           0           1           0           0
           0           0           1           0           0           0
           0           0         141          41           0           0
           0           0           5           0           0           0
           0           0           0          16           0           0
           0           0           0           0           0           0
           0           0           0           0           0           0
           0           0           0           0           0           0
           0           0           0           0           0           0
           0           0           0           0
Num RLSW                                   I               41
RLSW                                       R   N=          41
  8.00000000E-01  7.20000000E-01  1.00000000E+00  8.10000000E-01  2.00000000E-01
  0.00000000E+00  0.00000000E+00  1.00000000E+00  0.00000000E+00  0.00000000E+00
  0.00000000E+00  0.00000000E+00  1.00000000E+00  0.00000000E+00  0.00000000E+00
  0.00000000E+00  0.00000000E+00  1.00000000E+00  0.00000000E+00  0.00000000E+00
  0.00000000E+00  0.00000000E+00  1.00000000E+00  0.00000000E+00  0.00000000E+00
  0.00000000E+00  0.00000000E+00  1.00000000E+00  0.00000000E+00  0.00000000E+00
  0.00000000E+00  0.00000000E+00  1.00000000E+00  0.00000000E+00  0.00000000E+00
  0.00000000E+00  0.00000000E+00  0.00000000E+00  1.00000000E+00  1.00000000E+00
  0.00000000E+00
ECP-MxAtEC                                 I           250000
ECP-MaxLECP                                I               10
ECP-MaxAtL                                 I          2250000
ECP-MxTECP                                 I         11250000
ECP-LenNCZ                                 I                0
ECP-KFirst                                 I   N=         160
           0           0           0           0           0           0
           0           0           0           0           0           0
           0           0           0           0           0           0
           0           0           0           0           0           0
           0           0           0           0           0           0
           0           0           0           0           0           0
           0           0           0           0           0           0
           0           0           0           0           0           0
           0           0           0           0           0           0
           0           0           0           0           0           0
           0           0           0           0           0           0
           0           0           0           0           0           0
           0           0           0           0           0           0
           0           0           0           0           0           0
           0           0           0           0           0           0
           0           0           0           0           0           0
           0           0           0           0           0           0
           0           0           0           0           0           0
           0           0           0           0           0           0
           0           0           0           0           0           0
           0           0           0           0           0           0
           0           0           0           0           0           0
           0           0           0           0           0           0
           0           0           0           0           0           0
           0           0           0           0           0           0
           0           0           0           0           0           0
           0           0           0           0
ECP-KLast                                  I   N=         160
           0           0           0           0           0           0
           0           0           0           0           0           0
           0           0           0           0           0           0
           0           0           0           0           0           0
           0           0           0           0           0           0
           0           0           0           0           0           0
           0           0           0           0           0           0
           0           0           0           0           0           0
           0           0           0           0           0           0
           0           0           0           0           0           0
           0           0           0           0           0           0
           0           0           0           0           0           0
           0           0           0           0           0           0
           0           0           0           0           0           0
           0           0           0           0           0           0
           0           0           0           0           0           0
           0           0           0           0           0           0
           0           0           0           0           0           0
           0           0           0           0           0           0
           0           0           0           0           0           0
           0           0           0           0           0           0
           0           0           0           0           0           0
           0           0           0           0           0           0
           0           0           0           0           0           0
           0           0           0           0           0           0
           0           0           0           0           0           0
           0           0           0           0
ECP-LMax                                   I   N=          16
           0           0           0           0           0           0
           0           0           0           0           0           0
           0           0           0           0
ECP-LPSkip                                 I   N=          16
           1           1           1           1           1           1
           1           1           1           1           1           1
           1           1           1           1
ECP-RNFroz                                 R   N=          16
  0.00000000E+00  0.00000000E+00  0.00000000E+00  0.00000000E+00  0.00000000E+00
  0.00000000E+00  0.00000000E+00  0.00000000E+00  0.00000000E+00  0.00000000E+00
  0.00000000E+00  0.00000000E+00  0.00000000E+00  0.00000000E+00  0.00000000E+00
  0.00000000E+00
ECP-NLP                                    I                0
ECP-CLP1                                   R      0.000000000000000E+00
ECP-CLP2                                   R      0.000000000000000E+00
ECP-ZLP                                    R      0.000000000000000E+00
MxBond                                     I                4
NBond                                      I   N=          16
           2           4           4           4           4           4
           1           1           1           1           1           1
           1           1           1           1
IBond                                      I   N=          64
           2          16           0           0           1           3
           4           7           2           5           8           9
           2           6          10          11           3           6
          12          13           4           5          14          15
           2           0           0           0           3           0
           0           0           3           0           0           0
           4           0           0           0           4           0
           0           0           5           0           0           0
           5           0           0           0           6           0
           0           0           6           0           0           0
           1           0           0           0
RBond                                      R   N=          64
  1.00000000E+00  1.00000000E+00  0.00000000E+00  0.00000000E+00  1.00000000E+00
  1.00000000E+00  1.00000000E+00  1.00000000E+00  1.00000000E+00  1.00000000E+00
  1.00000000E+00  1.00000000E+00  1.00000000E+00  1.00000000E+00  1.00000000E+00
  1.00000000E+00  1.00000000E+00  1.00000000E+00  1.00000000E+00  1.00000000E+00
  1.00000000E+00  1.00000000E+00  1.00000000E+00  1.00000000E+00  1.00000000E+00
  0.00000000E+00  0.00000000E+00  0.00000000E+00  1.00000000E+00  0.00000000E+00
  0.00000000E+00  0.00000000E+00  1.00000000E+00  0.00000000E+00  0.00000000E+00
  0.00000000E+00  1.00000000E+00  0.00000000E+00  0.00000000E+00  0.00000000E+00
  1.00000000E+00  0.00000000E+00  0.00000000E+00  0.00000000E+00  1.00000000E+00
  0.00000000E+00  0.00000000E+00  0.00000000E+00  1.00000000E+00  0.00000000E+00
  0.00000000E+00  0.00000000E+00  1.00000000E+00  0.00000000E+00  0.00000000E+00
  0.00000000E+00  1.00000000E+00  0.00000000E+00  0.00000000E+00  0.00000000E+00
  1.00000000E+00  0.00000000E+00  0.00000000E+00  0.00000000E+00
Virial Ratio                               R      2.005866443132809E+00
SCF Energy                                 R     -5.945201458506400E+02
Total Energy                               R     -5.945201458506400E+02
RMS Force                                  R      7.767742219060320E-07
RMS Density                                R      5.861715629963272E-09
Job Status                                 I                1
Nuclear derivative order                   I                2
External E-field                           R   N=          35
  0.00000000E+00  0.00000000E+00  0.00000000E+00  0.00000000E+00  0.00000000E+00
  0.00000000E+00  0.00000000E+00  0.00000000E+00  0.00000000E+00  0.00000000E+00
  0.00000000E+00  0.00000000E+00  0.00000000E+00  0.00000000E+00  0.00000000E+00
  0.00000000E+00  0.00000000E+00  0.00000000E+00  0.00000000E+00  0.00000000E+00
  0.00000000E+00  0.00000000E+00  0.00000000E+00  0.00000000E+00  0.00000000E+00
  0.00000000E+00  0.00000000E+00  0.00000000E+00  0.00000000E+00  0.00000000E+00
  0.00000000E+00  0.00000000E+00  0.00000000E+00  0.00000000E+00  0.00000000E+00
IOpCl                                      I                0
IROHF                                      I                0
Alpha Orbital Energies                     R   N=         138
 -8.88290274E+01 -1.02142269E+01 -1.01883892E+01 -1.01863298E+01 -1.01859747E+01
 -1.01857850E+01 -7.92409958E+00 -5.89344430E+00 -5.88991551E+00 -5.88262477E+00
 -8.43187725E-01 -7.50096837E-01 -7.07363793E-01 -6.64480809E-01 -5.65536067E-01
 -5.58859812E-01 -4.89001610E-01 -4.70266721E-01 -4.31846998E-01 -4.20419579E-01
 -3.83258874E-01 -3.49994749E-01 -3.45902025E-01 -3.40733068E-01 -3.39764161E-01
 -3.21872517E-01 -3.13347523E-01 -2.29575960E-01  2.50633074E-02  5.32799409E-02
  5.83715215E-02  9.53254231E-02  9.76726642E-02  1.13718766E-01  1.24442352E-01
  1.33526261E-01  1.41307031E-01  1.46342885E-01  1.71945350E-01  1.80737149E-01
  2.04170963E-01  2.23537275E-01  2.65116483E-01  2.75723640E-01  3.70109642E-01
  3.91732898E-01  4.09628091E-01  4.31579298E-01  4.49090640E-01  4.68935164E-01
  4.98110535E-01  5.05448730E-01  5.59205082E-01  5.73465543E-01  5.94055615E-01
  5.97489972E-01  6.07366370E-01  6.12401667E-01  6.34646893E-01  6.45181924E-01
  6.49699573E-01  6.60087985E-01  6.62944963E-01  6.66859911E-01  6.81065523E-01
  6.88582001E-01  6.94693021E-01  7.02462887E-01  7.06580675E-01  7.23074442E-01
  7.35178190E-01  7.41372473E-01  7.52704368E-01  7.97762580E-01  8.55706500E-01
  9.09175654E-01  9.39747528E-01  9.58703902E-01  1.04645280E+00  1.06164870E+00
  1.11724405E+00  1.16193211E+00  1.18234909E+00  1.24320226E+00  1.34626700E+00