comment                                                                 
Freq      RB3LYP                                                      def2SVP             
Number of atoms                            I               24
Info1-9                                    I   N=           9
          10           5           0           0           0         100
           6          18        -502
Charge                                     I                0
Multiplicity                               I                1
Number of electrons                        I              104
Number of alpha electrons                  I               52
Number of beta electrons                   I               52
Number of basis functions                  I              250
Number of independent functions            I              250
Number of point charges in /Mol/           I                0
Number of translation vectors              I                0
Atomic numbers                             I   N=          24
          16           6           6           6           6           6
           6           6           6           6           6           6
           6           6           1           1           1           1
           1           1           1           1           1           1
Nuclear charges                            R   N=          24
  1.60000000E+01  6.00000000E+00  6.00000000E+00  6.00000000E+00  6.00000000E+00
  6.00000000E+00  6.00000000E+00  6.00000000E+00  6.00000000E+00  6.00000000E+00
  6.00000000E+00  6.00000000E+00  6.00000000E+00  6.00000000E+00  1.00000000E+00
  1.00000000E+00  1.00000000E+00  1.00000000E+00  1.00000000E+00  1.00000000E+00
  1.00000000E+00  1.00000000E+00  1.00000000E+00  1.00000000E+00
Current cartesian coordinates              R   N=          72
  4.54012154E+00  1.29741378E+00  3.41966812E+00  2.89918165E+00  9.34781969E-01
  3.48807982E-01  1.96292507E+00 -1.75857318E+00  7.18972402E-02  5.00313558E-01
  2.47382494E+00  8.25309174E-02 -6.73410520E-01 -1.76911136E+00 -3.38446987E-01
 -1.58104861E+00  8.56349230E-01 -3.34139875E-01  3.32039939E+00 -4.00690065E+00
  1.77871797E-01  1.70926340E-01  5.07910142E+00  1.82921346E-01 -1.95838334E+00
 -4.05172435E+00 -6.68485730E-01 -4.00420071E+00  1.85398525E+00 -6.57148332E-01
  2.02478225E+00 -6.29304035E+00 -1.50241125E-01 -2.25995996E+00  6.07649106E+00
 -1.41977879E-01 -5.88775407E-01 -6.31083361E+00 -5.71592168E-01 -4.32700556E+00
  4.47535917E+00 -5.58662056E-01  4.27084284E+00  1.40359260E+00 -1.14631196E+00
  5.35480214E+00 -3.98713582E+00  5.28130023E-01  1.77463497E+00  6.33481857E+00
  5.26477423E-01 -3.99725394E+00 -4.07784811E+00 -9.91746220E-01 -5.62201318E+00
  6.12593439E-01 -9.80011403E-01  3.06066942E+00 -8.07708045E+00 -7.19878485E-02
 -2.54750046E+00  8.11944448E+00 -6.51326257E-02 -1.56890328E+00 -8.11090775E+00
 -8.21869256E-01 -6.21067494E+00  5.28421179E+00 -8.04964403E-01  5.45915280E+00
  3.64137690E+00  2.96441302E+00
Force Field                                I                0
Int Atom Types                             I   N=          24
           0           0           0           0           0           0
           0           0           0           0           0           0
           0           0           0           0           0           0
           0           0           0           0           0           0
MM charges                                 R   N=          24
  0.00000000E+00  0.00000000E+00  0.00000000E+00  0.00000000E+00  0.00000000E+00
  0.00000000E+00  0.00000000E+00  0.00000000E+00  0.00000000E+00  0.00000000E+00
  0.00000000E+00  0.00000000E+00  0.00000000E+00  0.00000000E+00  0.00000000E+00
  0.00000000E+00  0.00000000E+00  0.00000000E+00  0.00000000E+00  0.00000000E+00
  0.00000000E+00  0.00000000E+00  0.00000000E+00  0.00000000E+00
Integer atomic weights                     I   N=          24
          32          12          12          12          12          12
          12          12          12          12          12          12
          12          12           1           1           1           1
           1           1           1           1           1           1
Real atomic weights                        R   N=          24
  3.19720718E+01  1.20000000E+01  1.20000000E+01  1.20000000E+01  1.20000000E+01
  1.20000000E+01  1.20000000E+01  1.20000000E+01  1.20000000E+01  1.20000000E+01
  1.20000000E+01  1.20000000E+01  1.20000000E+01  1.20000000E+01  1.00782504E+00
  1.00782504E+00  1.00782504E+00  1.00782504E+00  1.00782504E+00  1.00782504E+00
  1.00782504E+00  1.00782504E+00  1.00782504E+00  1.00782504E+00
Atom fragment info                         I   N=          24
           0           0           0           0           0           0
           0           0           0           0           0           0
           0           0           0           0           0           0
           0           0           0           0           0           0
Atom residue num                           I   N=          24
           0           0           0           0           0           0
           0           0           0           0           0           0
           0           0           0           0           0           0
           0           0           0           0           0           0
Nuclear spins                              I   N=          24
           0           0           0           0           0           0
           0           0           0           0           0           0
           0           0           1           1           1           1
           1           1           1           1           1           1
Nuclear ZEff                               R   N=          24
 -1.36000000E+01 -3.60000000E+00 -3.60000000E+00 -3.60000000E+00 -3.60000000E+00
 -3.60000000E+00 -3.60000000E+00 -3.60000000E+00 -3.60000000E+00 -3.60000000E+00
 -3.60000000E+00 -3.60000000E+00 -3.60000000E+00 -3.60000000E+00 -1.00000000E+00
 -1.00000000E+00 -1.00000000E+00 -1.00000000E+00 -1.00000000E+00 -1.00000000E+00
 -1.00000000E+00 -1.00000000E+00 -1.00000000E+00 -1.00000000E+00
Nuclear ZNuc                               R   N=          24
  1.60000000E+01  6.00000000E+00  6.00000000E+00  6.00000000E+00  6.00000000E+00
  6.00000000E+00  6.00000000E+00  6.00000000E+00  6.00000000E+00  6.00000000E+00
  6.00000000E+00  6.00000000E+00  6.00000000E+00  6.00000000E+00  1.00000000E+00
  1.00000000E+00  1.00000000E+00  1.00000000E+00  1.00000000E+00  1.00000000E+00
  1.00000000E+00  1.00000000E+00  1.00000000E+00  1.00000000E+00
Nuclear QMom                               R   N=          24
  0.00000000E+00  0.00000000E+00  0.00000000E+00  0.00000000E+00  0.00000000E+00
  0.00000000E+00  0.00000000E+00  0.00000000E+00  0.00000000E+00  0.00000000E+00
  0.00000000E+00  0.00000000E+00  0.00000000E+00  0.00000000E+00  0.00000000E+00
  0.00000000E+00  0.00000000E+00  0.00000000E+00  0.00000000E+00  0.00000000E+00
  0.00000000E+00  0.00000000E+00  0.00000000E+00  0.00000000E+00
Nuclear GFac                               R   N=          24
  0.00000000E+00  0.00000000E+00  0.00000000E+00  0.00000000E+00  0.00000000E+00
  0.00000000E+00  0.00000000E+00  0.00000000E+00  0.00000000E+00  0.00000000E+00
  0.00000000E+00  0.00000000E+00  0.00000000E+00  0.00000000E+00  2.79284600E+00
  2.79284600E+00  2.79284600E+00  2.79284600E+00  2.79284600E+00  2.79284600E+00
  2.79284600E+00  2.79284600E+00  2.79284600E+00  2.79284600E+00
MicOpt                                     I   N=          24
          -1          -1          -1          -1          -1          -1
          -1          -1          -1          -1          -1          -1
          -1          -1          -1          -1          -1          -1
          -1          -1          -1          -1          -1          -1
Number of contracted shells                I              116
Number of primitive shells                 I              224
Pure/Cartesian d shells                    I                0
Pure/Cartesian f shells                    I                0
Highest angular momentum                   I                2
Largest degree of contraction              I                5
Shell types                                I   N=         116
           0           0           0           0           1           1
           1          -2           0           0           0           1
           1          -2           0           0           0           1
           1          -2           0           0           0           1
           1          -2           0           0           0           1
           1          -2           0           0           0           1
           1          -2           0           0           0           1
           1          -2           0           0           0           1
           1          -2           0           0           0           1
           1          -2           0           0           0           1
           1          -2           0           0           0           1
           1          -2           0           0           0           1
           1          -2           0           0           0           1
           1          -2           0           0           0           1
           1          -2           0           0           1           0
           0           1           0           0           1           0
           0           1           0           0           1           0
           0           1           0           0           1           0
           0           1           0           0           1           0
           0           1
Number of primitives per shell             I   N=         116
           5           3           1           1           5           1
           1           1           5           1           1           3
           1           1           5           1           1           3
           1           1           5           1           1           3
           1           1           5           1           1           3
           1           1           5           1           1           3
           1           1           5           1           1           3
           1           1           5           1           1           3
           1           1           5           1           1           3
           1           1           5           1           1           3
           1           1           5           1           1           3
           1           1           5           1           1           3
           1           1           5           1           1           3
           1           1           5           1           1           3
           1           1           3           1           1           3
           1           1           3           1           1           3
           1           1           3           1           1           3
           1           1           3           1           1           3
           1           1           3           1           1           3
           1           1
Shell to atom map                          I   N=         116
           1           1           1           1           1           1
           1           1           2           2           2           2
           2           2           3           3           3           3
           3           3           4           4           4           4
           4           4           5           5           5           5
           5           5           6           6           6           6
           6           6           7           7           7           7
           7           7           8           8           8           8
           8           8           9           9           9           9
           9           9          10          10          10          10
          10          10          11          11          11          11
          11          11          12          12          12          12
          12          12          13          13          13          13
          13          13          14          14          14          14
          14          14          15          15          15          16
          16          16          17          17          17          18
          18          18          19          19          19          20
          20          20          21          21          21          22
          22          22          23          23          23          24
          24          24
Primitive exponents                        R   N=         224
  9.18493030E+03  1.38151055E+03  3.13871476E+02  8.80538706E+01  2.70399149E+01
  4.56487313E+01  4.96645223E+00  2.01162420E+00  3.56610770E-01  1.35072215E-01
  2.61982334E+02  6.13068947E+01  1.91037299E+01  6.65677204E+00  2.39596352E+00
  6.17761617E-01  1.69933769E-01  5.50000000E-01  1.23840169E+03  1.86290050E+02
  4.22511763E+01  1.16765579E+01  3.59305065E+00  4.02451474E-01  1.30901827E-01
  9.46809706E+00  2.01035451E+00  5.47710047E-01  1.52686138E-01  8.00000000E-01
  1.23840169E+03  1.86290050E+02  4.22511763E+01  1.16765579E+01  3.59305065E+00
  4.02451474E-01  1.30901827E-01  9.46809706E+00  2.01035451E+00  5.47710047E-01
  1.52686138E-01  8.00000000E-01  1.23840169E+03  1.86290050E+02  4.22511763E+01
  1.16765579E+01  3.59305065E+00  4.02451474E-01  1.30901827E-01  9.46809706E+00
  2.01035451E+00  5.47710047E-01  1.52686138E-01  8.00000000E-01  1.23840169E+03
  1.86290050E+02  4.22511763E+01  1.16765579E+01  3.59305065E+00  4.02451474E-01
  1.30901827E-01  9.46809706E+00  2.01035451E+00  5.47710047E-01  1.52686138E-01
  8.00000000E-01  1.23840169E+03  1.86290050E+02  4.22511763E+01  1.16765579E+01
  3.59305065E+00  4.02451474E-01  1.30901827E-01  9.46809706E+00  2.01035451E+00
  5.47710047E-01  1.52686138E-01  8.00000000E-01  1.23840169E+03  1.86290050E+02
  4.22511763E+01  1.16765579E+01  3.59305065E+00  4.02451474E-01  1.30901827E-01
  9.46809706E+00  2.01035451E+00  5.47710047E-01  1.52686138E-01  8.00000000E-01
  1.23840169E+03  1.86290050E+02  4.22511763E+01  1.16765579E+01  3.59305065E+00
  4.02451474E-01  1.30901827E-01  9.46809706E+00  2.01035451E+00  5.47710047E-01
  1.52686138E-01  8.00000000E-01  1.23840169E+03  1.86290050E+02  4.22511763E+01
  1.16765579E+01  3.59305065E+00  4.02451474E-01  1.30901827E-01  9.46809706E+00
  2.01035451E+00  5.47710047E-01  1.52686138E-01  8.00000000E-01  1.23840169E+03
  1.86290050E+02  4.22511763E+01  1.16765579E+01  3.59305065E+00  4.02451474E-01
  1.30901827E-01  9.46809706E+00  2.01035451E+00  5.47710047E-01  1.52686138E-01
  8.00000000E-01  1.23840169E+03  1.86290050E+02  4.22511763E+01  1.16765579E+01
  3.59305065E+00  4.02451474E-01  1.30901827E-01  9.46809706E+00  2.01035451E+00
  5.47710047E-01  1.52686138E-01  8.00000000E-01  1.23840169E+03  1.86290050E+02
  4.22511763E+01  1.16765579E+01  3.59305065E+00  4.02451474E-01  1.30901827E-01
  9.46809706E+00  2.01035451E+00  5.47710047E-01  1.52686138E-01  8.00000000E-01
  1.23840169E+03  1.86290050E+02  4.22511763E+01  1.16765579E+01  3.59305065E+00
  4.02451474E-01  1.30901827E-01  9.46809706E+00  2.01035451E+00  5.47710047E-01
  1.52686138E-01  8.00000000E-01  1.23840169E+03  1.86290050E+02  4.22511763E+01
  1.16765579E+01  3.59305065E+00  4.02451474E-01  1.30901827E-01  9.46809706E+00
  2.01035451E+00  5.47710047E-01  1.52686138E-01  8.00000000E-01  1.30107010E+01
  1.96225720E+00  4.44537960E-01  1.21949620E-01  8.00000000E-01  1.30107010E+01
  1.96225720E+00  4.44537960E-01  1.21949620E-01  8.00000000E-01  1.30107010E+01
  1.96225720E+00  4.44537960E-01  1.21949620E-01  8.00000000E-01  1.30107010E+01
  1.96225720E+00  4.44537960E-01  1.21949620E-01  8.00000000E-01  1.30107010E+01
  1.96225720E+00  4.44537960E-01  1.21949620E-01  8.00000000E-01  1.30107010E+01
  1.96225720E+00  4.44537960E-01  1.21949620E-01  8.00000000E-01  1.30107010E+01
  1.96225720E+00  4.44537960E-01  1.21949620E-01  8.00000000E-01  1.30107010E+01
  1.96225720E+00  4.44537960E-01  1.21949620E-01  8.00000000E-01  1.30107010E+01
  1.96225720E+00  4.44537960E-01  1.21949620E-01  8.00000000E-01  1.30107010E+01
  1.96225720E+00  4.44537960E-01  1.21949620E-01  8.00000000E-01
Contraction coefficients                   R   N=         224
 -5.47294661E-03 -4.09544022E-02 -1.84758290E-01 -4.75672806E-01 -4.34951536E-01
 -9.19040458E-02  5.56987772E-01  5.11154683E-01  1.00000000E+00  1.00000000E+00
 -9.18305466E-03 -6.59022265E-02 -2.45877845E-01 -4.82314711E-01 -3.89563144E-01
  1.00000000E+00  1.00000000E+00  1.00000000E+00  5.51736505E-03  4.10888286E-02
  1.82253821E-01  4.68284594E-01  4.45758173E-01  1.00000000E+00  1.00000000E+00
  5.68883320E-02  3.12940593E-01  7.60650165E-01  1.00000000E+00  1.00000000E+00
  5.51736505E-03  4.10888286E-02  1.82253821E-01  4.68284594E-01  4.45758173E-01
  1.00000000E+00  1.00000000E+00  5.68883320E-02  3.12940593E-01  7.60650165E-01
  1.00000000E+00  1.00000000E+00  5.51736505E-03  4.10888286E-02  1.82253821E-01
  4.68284594E-01  4.45758173E-01  1.00000000E+00  1.00000000E+00  5.68883320E-02
  3.12940593E-01  7.60650165E-01  1.00000000E+00  1.00000000E+00  5.51736505E-03
  4.10888286E-02  1.82253821E-01  4.68284594E-01  4.45758173E-01  1.00000000E+00
  1.00000000E+00  5.68883320E-02  3.12940593E-01  7.60650165E-01  1.00000000E+00
  1.00000000E+00  5.51736505E-03  4.10888286E-02  1.82253821E-01  4.68284594E-01
  4.45758173E-01  1.00000000E+00  1.00000000E+00  5.68883320E-02  3.12940593E-01
  7.60650165E-01  1.00000000E+00  1.00000000E+00  5.51736505E-03  4.10888286E-02
  1.82253821E-01  4.68284594E-01  4.45758173E-01  1.00000000E+00  1.00000000E+00
  5.68883320E-02  3.12940593E-01  7.60650165E-01  1.00000000E+00  1.00000000E+00
  5.51736505E-03  4.10888286E-02  1.82253821E-01  4.68284594E-01  4.45758173E-01
  1.00000000E+00  1.00000000E+00  5.68883320E-02  3.12940593E-01  7.60650165E-01
  1.00000000E+00  1.00000000E+00  5.51736505E-03  4.10888286E-02  1.82253821E-01
  4.68284594E-01  4.45758173E-01  1.00000000E+00  1.00000000E+00  5.68883320E-02
  3.12940593E-01  7.60650165E-01  1.00000000E+00  1.00000000E+00  5.51736505E-03
  4.10888286E-02  1.82253821E-01  4.68284594E-01  4.45758173E-01  1.00000000E+00
  1.00000000E+00  5.68883320E-02  3.12940593E-01  7.60650165E-01  1.00000000E+00
  1.00000000E+00  5.51736505E-03  4.10888286E-02  1.82253821E-01  4.68284594E-01
  4.45758173E-01  1.00000000E+00  1.00000000E+00  5.68883320E-02  3.12940593E-01
  7.60650165E-01  1.00000000E+00  1.00000000E+00  5.51736505E-03  4.10888286E-02
  1.82253821E-01  4.68284594E-01  4.45758173E-01  1.00000000E+00  1.00000000E+00
  5.68883320E-02  3.12940593E-01  7.60650165E-01  1.00000000E+00  1.00000000E+00
  5.51736505E-03  4.10888286E-02  1.82253821E-01  4.68284594E-01  4.45758173E-01
  1.00000000E+00  1.00000000E+00  5.68883320E-02  3.12940593E-01  7.60650165E-01
  1.00000000E+00  1.00000000E+00  5.51736505E-03  4.10888286E-02  1.82253821E-01
  4.68284594E-01  4.45758173E-01  1.00000000E+00  1.00000000E+00  5.68883320E-02
  3.12940593E-01  7.60650165E-01  1.00000000E+00  1.00000000E+00  3.34854848E-02
  2.34721871E-01  8.13770285E-01  1.00000000E+00  1.00000000E+00  3.34854848E-02
  2.34721871E-01  8.13770285E-01  1.00000000E+00  1.00000000E+00  3.34854848E-02
  2.34721871E-01  8.13770285E-01  1.00000000E+00  1.00000000E+00  3.34854848E-02
  2.34721871E-01  8.13770285E-01  1.00000000E+00  1.00000000E+00  3.34854848E-02
  2.34721871E-01  8.13770285E-01  1.00000000E+00  1.00000000E+00  3.34854848E-02
  2.34721871E-01  8.13770285E-01  1.00000000E+00  1.00000000E+00  3.34854848E-02
  2.34721871E-01  8.13770285E-01  1.00000000E+00  1.00000000E+00  3.34854848E-02
  2.34721871E-01  8.13770285E-01  1.00000000E+00  1.00000000E+00  3.34854848E-02
  2.34721871E-01  8.13770285E-01  1.00000000E+00  1.00000000E+00  3.34854848E-02
  2.34721871E-01  8.13770285E-01  1.00000000E+00  1.00000000E+00
Coordinates of each shell                  R   N=         348
  4.54012154E+00  1.29741378E+00  3.41966812E+00  4.54012154E+00  1.29741378E+00
  3.41966812E+00  4.54012154E+00  1.29741378E+00  3.41966812E+00  4.54012154E+00
  1.29741378E+00  3.41966812E+00  4.54012154E+00  1.29741378E+00  3.41966812E+00
  4.54012154E+00  1.29741378E+00  3.41966812E+00  4.54012154E+00  1.29741378E+00
  3.41966812E+00  4.54012154E+00  1.29741378E+00  3.41966812E+00  2.89918165E+00
  9.34781969E-01  3.48807982E-01  2.89918165E+00  9.34781969E-01  3.48807982E-01
  2.89918165E+00  9.34781969E-01  3.48807982E-01  2.89918165E+00  9.34781969E-01
  3.48807982E-01  2.89918165E+00  9.34781969E-01  3.48807982E-01  2.89918165E+00
  9.34781969E-01  3.48807982E-01  1.96292507E+00 -1.75857318E+00  7.18972402E-02
  1.96292507E+00 -1.75857318E+00  7.18972402E-02  1.96292507E+00 -1.75857318E+00
  7.18972402E-02  1.96292507E+00 -1.75857318E+00  7.18972402E-02  1.96292507E+00
 -1.75857318E+00  7.18972402E-02  1.96292507E+00 -1.75857318E+00  7.18972402E-02
  5.00313558E-01  2.47382494E+00  8.25309174E-02  5.00313558E-01  2.47382494E+00
  8.25309174E-02  5.00313558E-01  2.47382494E+00  8.25309174E-02  5.00313558E-01
  2.47382494E+00  8.25309174E-02  5.00313558E-01  2.47382494E+00  8.25309174E-02
  5.00313558E-01  2.47382494E+00  8.25309174E-02 -6.73410520E-01 -1.76911136E+00
 -3.38446987E-01 -6.73410520E-01 -1.76911136E+00 -3.38446987E-01 -6.73410520E-01
 -1.76911136E+00 -3.38446987E-01 -6.73410520E-01 -1.76911136E+00 -3.38446987E-01
 -6.73410520E-01 -1.76911136E+00 -3.38446987E-01 -6.73410520E-01 -1.76911136E+00
 -3.38446987E-01 -1.58104861E+00  8.56349230E-01 -3.34139875E-01 -1.58104861E+00
  8.56349230E-01 -3.34139875E-01 -1.58104861E+00  8.56349230E-01 -3.34139875E-01
 -1.58104861E+00  8.56349230E-01 -3.34139875E-01 -1.58104861E+00  8.56349230E-01
 -3.34139875E-01 -1.58104861E+00  8.56349230E-01 -3.34139875E-01  3.32039939E+00
 -4.00690065E+00  1.77871797E-01  3.32039939E+00 -4.00690065E+00  1.77871797E-01
  3.32039939E+00 -4.00690065E+00  1.77871797E-01  3.32039939E+00 -4.00690065E+00
  1.77871797E-01  3.32039939E+00 -4.00690065E+00  1.77871797E-01  3.32039939E+00
 -4.00690065E+00  1.77871797E-01  1.70926340E-01  5.07910142E+00  1.82921346E-01
  1.70926340E-01  5.07910142E+00  1.82921346E-01  1.70926340E-01  5.07910142E+00
  1.82921346E-01  1.70926340E-01  5.07910142E+00  1.82921346E-01  1.70926340E-01
  5.07910142E+00  1.82921346E-01  1.70926340E-01  5.07910142E+00  1.82921346E-01
 -1.95838334E+00 -4.05172435E+00 -6.68485730E-01 -1.95838334E+00 -4.05172435E+00
 -6.68485730E-01 -1.95838334E+00 -4.05172435E+00 -6.68485730E-01 -1.95838334E+00
 -4.05172435E+00 -6.68485730E-01 -1.95838334E+00 -4.05172435E+00 -6.68485730E-01
 -1.95838334E+00 -4.05172435E+00 -6.68485730E-01 -4.00420071E+00  1.85398525E+00
 -6.57148332E-01 -4.00420071E+00  1.85398525E+00 -6.57148332E-01 -4.00420071E+00
  1.85398525E+00 -6.57148332E-01 -4.00420071E+00  1.85398525E+00 -6.57148332E-01
 -4.00420071E+00  1.85398525E+00 -6.57148332E-01 -4.00420071E+00  1.85398525E+00
 -6.57148332E-01  2.02478225E+00 -6.29304035E+00 -1.50241125E-01  2.02478225E+00
 -6.29304035E+00 -1.50241125E-01  2.02478225E+00 -6.29304035E+00 -1.50241125E-01
  2.02478225E+00 -6.29304035E+00 -1.50241125E-01  2.02478225E+00 -6.29304035E+00
 -1.50241125E-01  2.02478225E+00 -6.29304035E+00 -1.50241125E-01 -2.25995996E+00
  6.07649106E+00 -1.41977879E-01 -2.25995996E+00  6.07649106E+00 -1.41977879E-01
 -2.25995996E+00  6.07649106E+00 -1.41977879E-01 -2.25995996E+00  6.07649106E+00
 -1.41977879E-01 -2.25995996E+00  6.07649106E+00 -1.41977879E-01 -2.25995996E+00
  6.07649106E+00 -1.41977879E-01 -5.88775407E-01 -6.31083361E+00 -5.71592168E-01
 -5.88775407E-01 -6.31083361E+00 -5.71592168E-01 -5.88775407E-01 -6.31083361E+00
 -5.71592168E-01 -5.88775407E-01 -6.31083361E+00 -5.71592168E-01 -5.88775407E-01
 -6.31083361E+00 -5.71592168E-01 -5.88775407E-01 -6.31083361E+00 -5.71592168E-01
 -4.32700556E+00  4.47535917E+00 -5.58662056E-01 -4.32700556E+00  4.47535917E+00
 -5.58662056E-01 -4.32700556E+00  4.47535917E+00 -5.58662056E-01 -4.32700556E+00
  4.47535917E+00 -5.58662056E-01 -4.32700556E+00  4.47535917E+00 -5.58662056E-01
 -4.32700556E+00  4.47535917E+00 -5.58662056E-01  4.27084284E+00  1.40359260E+00
 -1.14631196E+00  4.27084284E+00  1.40359260E+00 -1.14631196E+00  4.27084284E+00
  1.40359260E+00 -1.14631196E+00  5.35480214E+00 -3.98713582E+00  5.28130023E-01
  5.35480214E+00 -3.98713582E+00  5.28130023E-01  5.35480214E+00 -3.98713582E+00
  5.28130023E-01  1.77463497E+00  6.33481857E+00  5.26477423E-01  1.77463497E+00
  6.33481857E+00  5.26477423E-01  1.77463497E+00  6.33481857E+00  5.26477423E-01
 -3.99725394E+00 -4.07784811E+00 -9.91746220E-01 -3.99725394E+00 -4.07784811E+00
 -9.91746220E-01 -3.99725394E+00 -4.07784811E+00 -9.91746220E-01 -5.62201318E+00
  6.12593439E-01 -9.80011403E-01 -5.62201318E+00  6.12593439E-01 -9.80011403E-01
 -5.62201318E+00  6.12593439E-01 -9.80011403E-01  3.06066942E+00 -8.07708045E+00
 -7.19878485E-02  3.06066942E+00 -8.07708045E+00 -7.19878485E-02  3.06066942E+00
 -8.07708045E+00 -7.19878485E-02 -2.54750046E+00  8.11944448E+00 -6.51326257E-02
 -2.54750046E+00  8.11944448E+00 -6.51326257E-02 -2.54750046E+00  8.11944448E+00
 -6.51326257E-02 -1.56890328E+00 -8.11090775E+00 -8.21869256E-01 -1.56890328E+00
 -8.11090775E+00 -8.21869256E-01 -1.56890328E+00 -8.11090775E+00 -8.21869256E-01
 -6.21067494E+00  5.28421179E+00 -8.04964403E-01 -6.21067494E+00  5.28421179E+00
 -8.04964403E-01 -6.21067494E+00  5.28421179E+00 -8.04964403E-01  5.45915280E+00
  3.64137690E+00  2.96441302E+00  5.45915280E+00  3.64137690E+00  2.96441302E+00
  5.45915280E+00  3.64137690E+00  2.96441302E+00
Constraint Structure                       R   N=          72
  4.54012154E+00  1.29741378E+00  3.41966812E+00  2.89918165E+00  9.34781969E-01
  3.48807982E-01  1.96292507E+00 -1.75857318E+00  7.18972402E-02  5.00313558E-01
  2.47382494E+00  8.25309174E-02 -6.73410520E-01 -1.76911136E+00 -3.38446987E-01
 -1.58104861E+00  8.56349230E-01 -3.34139875E-01  3.32039939E+00 -4.00690065E+00
  1.77871797E-01  1.70926340E-01  5.07910142E+00  1.82921346E-01 -1.95838334E+00
 -4.05172435E+00 -6.68485730E-01 -4.00420071E+00  1.85398525E+00 -6.57148332E-01
  2.02478225E+00 -6.29304035E+00 -1.50241125E-01 -2.25995996E+00  6.07649106E+00
 -1.41977879E-01 -5.88775407E-01 -6.31083361E+00 -5.71592168E-01 -4.32700556E+00
  4.47535917E+00 -5.58662056E-01  4.27084284E+00  1.40359260E+00 -1.14631196E+00
  5.35480214E+00 -3.98713582E+00  5.28130023E-01  1.77463497E+00  6.33481857E+00
  5.26477423E-01 -3.99725394E+00 -4.07784811E+00 -9.91746220E-01 -5.62201318E+00
  6.12593439E-01 -9.80011403E-01  3.06066942E+00 -8.07708045E+00 -7.19878485E-02
 -2.54750046E+00  8.11944448E+00 -6.51326257E-02 -1.56890328E+00 -8.11090775E+00
 -8.21869256E-01 -6.21067494E+00  5.28421179E+00 -8.04964403E-01  5.45915280E+00
  3.64137690E+00  2.96441302E+00
Num ILSW                                   I              100
ILSW                                       I   N=         100
           0           0           0           0           2           0
           0           0           0           0         402          -1
           5           0           0           0           2           0
           0           0           0           0           1           0
           1           1           0           0           0           0
           0           0      100000           0          -1           0
           0           0           0           0           0           0
           0           0           0           1           0           0
           0           0           1           0           0           0
           0           0         141          41           0           0
           0           0           5           0           0           0
           0           0           0          24           0           0
           0           0           0           0           0           0
           0           0           0           0           0           0
           0           0           0           0           0           0
           0           0           0           0           0           0
           0           0           0           0
Num RLSW                                   I               41
RLSW                                       R   N=          41
  8.00000000E-01  7.20000000E-01  1.00000000E+00  8.10000000E-01  2.00000000E-01
  0.00000000E+00  0.00000000E+00  1.00000000E+00  0.00000000E+00  0.00000000E+00
  0.00000000E+00  0.00000000E+00  1.00000000E+00  0.00000000E+00  0.00000000E+00
  0.00000000E+00  0.00000000E+00  1.00000000E+00  0.00000000E+00  0.00000000E+00
  0.00000000E+00  0.00000000E+00  1.00000000E+00  0.00000000E+00  0.00000000E+00
  0.00000000E+00  0.00000000E+00  1.00000000E+00  0.00000000E+00  0.00000000E+00
  0.00000000E+00  0.00000000E+00  1.00000000E+00  0.00000000E+00  0.00000000E+00
  0.00000000E+00  0.00000000E+00  0.00000000E+00  1.00000000E+00  1.00000000E+00
  0.00000000E+00
ECP-MxAtEC                                 I           250000
ECP-MaxLECP                                I               10
ECP-MaxAtL                                 I          2250000
ECP-MxTECP                                 I         11250000
ECP-LenNCZ                                 I                0
ECP-KFirst                                 I   N=         240
           0           0           0           0           0           0
           0           0           0           0           0           0
           0           0           0           0           0           0
           0           0           0           0           0           0
           0           0           0           0           0           0
           0           0           0           0           0           0
           0           0           0           0           0           0