 Entering Gaussian System, Link 0=g09
 Initial command:
 /opt/apps/apps/gaussian/09E/sse4/l1.exe "/mnt/lustre/users/k1814947/measured_mols/Gau-77080.inp" -scrdir="/mnt/lustre/users/k1814947/measured_mols/"
 Entering Link 1 = /opt/apps/apps/gaussian/09E/sse4/l1.exe PID=     77081.
  
 Copyright (c) 1988,1990,1992,1993,1995,1998,2003,2009,2015,
            Gaussian, Inc.  All Rights Reserved.
  
 This is part of the Gaussian(R) 09 program.  It is based on
 the Gaussian(R) 03 system (copyright 2003, Gaussian, Inc.),
 the Gaussian(R) 98 system (copyright 1998, Gaussian, Inc.),
 the Gaussian(R) 94 system (copyright 1995, Gaussian, Inc.),
 the Gaussian 92(TM) system (copyright 1992, Gaussian, Inc.),
 the Gaussian 90(TM) system (copyright 1990, Gaussian, Inc.),
 the Gaussian 88(TM) system (copyright 1988, Gaussian, Inc.),
 the Gaussian 86(TM) system (copyright 1986, Carnegie Mellon
 University), and the Gaussian 82(TM) system (copyright 1983,
 Carnegie Mellon University). Gaussian is a federally registered
 trademark of Gaussian, Inc.
  
 This software contains proprietary and confidential information,
 including trade secrets, belonging to Gaussian, Inc.
  
 This software is provided under written license and may be
 used, copied, transmitted, or stored only in accord with that
 written license.
  
 The following legend is applicable only to US Government
 contracts under FAR:
  
                    RESTRICTED RIGHTS LEGEND
  
 Use, reproduction and disclosure by the US Government is
 subject to restrictions as set forth in subparagraphs (a)
 and (c) of the Commercial Computer Software - Restricted
 Rights clause in FAR 52.227-19.
  
 Gaussian, Inc.
 340 Quinnipiac St., Bldg. 40, Wallingford CT 06492
  
  
 ---------------------------------------------------------------
 Warning -- This program may not be used in any manner that
 competes with the business of Gaussian, Inc. or will provide
 assistance to any competitor of Gaussian, Inc.  The licensee
 of this program is prohibited from giving any competitor of
 Gaussian, Inc. access to this program.  By using this program,
 the user acknowledges that Gaussian, Inc. is engaged in the
 business of creating and licensing software in the field of
 computational chemistry and represents and warrants to the
 licensee that it is not a competitor of Gaussian, Inc. and that
 it will not use this program in any manner prohibited above.
 ---------------------------------------------------------------
  

 Cite this work as:
 Gaussian 09, Revision E.01,
 M. J. Frisch, G. W. Trucks, H. B. Schlegel, G. E. Scuseria, 
 M. A. Robb, J. R. Cheeseman, G. Scalmani, V. Barone, B. Mennucci, 
 G. A. Petersson, H. Nakatsuji, M. Caricato, X. Li, H. P. Hratchian, 
 A. F. Izmaylov, J. Bloino, G. Zheng, J. L. Sonnenberg, M. Hada, 
 M. Ehara, K. Toyota, R. Fukuda, J. Hasegawa, M. Ishida, T. Nakajima, 
 Y. Honda, O. Kitao, H. Nakai, T. Vreven, J. A. Montgomery, Jr., 
 J. E. Peralta, F. Ogliaro, M. Bearpark, J. J. Heyd, E. Brothers, 
 K. N. Kudin, V. N. Staroverov, T. Keith, R. Kobayashi, J. Normand, 
 K. Raghavachari, A. Rendell, J. C. Burant, S. S. Iyengar, J. Tomasi, 
 M. Cossi, N. Rega, J. M. Millam, M. Klene, J. E. Knox, J. B. Cross, 
 V. Bakken, C. Adamo, J. Jaramillo, R. Gomperts, R. E. Stratmann, 
 O. Yazyev, A. J. Austin, R. Cammi, C. Pomelli, J. W. Ochterski, 
 R. L. Martin, K. Morokuma, V. G. Zakrzewski, G. A. Voth, 
 P. Salvador, J. J. Dannenberg, S. Dapprich, A. D. Daniels, 
 O. Farkas, J. B. Foresman, J. V. Ortiz, J. Cioslowski, 
 and D. J. Fox, Gaussian, Inc., Wallingford CT, 2013.
 
 ******************************************
 Gaussian 09:  ES64L-G09RevE.01 30-Nov-2015
                 9-Jul-2020 
 ******************************************
 %chk=freq-cas_19552-08-0_spid_194696.chk
 %nproc=16
 Will use up to   16 processors via shared memory.
 %mem=24000MB
 ----------------------------------------------------------------------
 #p geom=AllCheck freq=raman b3lyp/def2svp nosymm int=ultrafine empiric
 aldispersion=GD3BJ
 ----------------------------------------------------------------------
 1/10=4,29=7,30=1,38=1/1,3;
 2/12=2,15=1,40=1/2;
 3/5=43,7=101,11=2,14=-4,16=1,25=1,30=1,71=2,74=-5,75=-5,124=41,140=1/1,2,3;
 4//1;
 5/5=2,38=5,98=1/2;
 8/6=4,10=90,11=11/1;
 10/13=10,15=4,31=1/2;
 11/6=3,8=1,9=11,15=111,16=1,31=1/1,2,10;
 10/6=1,31=1/2;
 6/7=2,8=2,9=2,10=2,18=1,28=1/1;
 7/8=1,10=1,25=1,30=1/1,2,3,16;
 1/10=4,30=1/3;
 99//99;
 Leave Link    1 at Thu Jul  9 20:51:12 2020, MaxMem=  3145728000 cpu:         1.8
 (Enter /opt/apps/apps/gaussian/09E/sse4/l101.exe)
 Structure from the checkpoint file:  "freq-cas_19552-08-0_spid_194696.chk"
 -------
 comment
 -------
 Charge =  0 Multiplicity = 1
 Redundant internal coordinates found in file.
 S,0,2.4025288413,0.6865618044,1.809610428
 C,0,1.5341808528,0.4946653128,0.1845812341
 C,0,1.0387352092,-0.9305968441,0.0380463809
 C,0,0.2647545322,1.3090917758,0.0436734805
 C,0,-0.356353499,-0.93617341,-0.1790984317
 C,0,-0.8366548878,0.4531604953,-0.1768192062
 C,0,1.7570796802,-2.1203605033,0.0941257011
 C,0,0.0904503233,2.6877447106,0.0967978073
 C,0,-1.0363318286,-2.1440801838,-0.3537474126
 C,0,-2.1189317562,0.9810867375,-0.3477479201
 C,0,1.0714686188,-3.3301335242,-0.0795041789
 C,0,-1.1959193052,3.2155405796,-0.0751314575
 C,0,-0.3115665266,-3.3395493152,-0.302473548
 C,0,-2.2897527244,2.3682580716,-0.2956312272
 H,0,2.2600326917,0.7427492142,-0.6066021631
 H,0,2.8336392469,-2.1099014045,0.2794743716
 H,0,0.9390963813,3.3522416094,0.278599853
 H,0,-2.1152556813,-2.1579042774,-0.5248094963
 H,0,-2.9750412397,0.3241704858,-0.5185996986
 H,0,1.6196364984,-4.274206884,-0.0380943287
 H,0,-1.3480791813,4.2966249672,-0.0344667011
 H,0,-0.8302278557,-4.2921075233,-0.434914479
 H,0,-3.2865476289,2.7962844421,-0.425968816
 H,0,2.8888592385,1.9269336635,1.5686998087
 Recover connectivity data from disk.
 NAtoms=     24 NQM=       24 NQMF=       0 NMMI=      0 NMMIF=      0
                NMic=       0 NMicF=      0.
                    Isotopes and Nuclear Properties:
 (Nuclear quadrupole moments (NQMom) in fm**2, nuclear magnetic moments (NMagM)
  in nuclear magnetons)

  Atom         1           2           3           4           5           6           7           8           9          10
 IAtWgt=          32          12          12          12          12          12          12          12          12          12
 AtmWgt=  31.9720718  12.0000000  12.0000000  12.0000000  12.0000000  12.0000000  12.0000000  12.0000000  12.0000000  12.0000000
 NucSpn=           0           0           0           0           0           0           0           0           0           0
 AtZEff= -13.6000000  -3.6000000  -3.6000000  -3.6000000  -3.6000000  -3.6000000  -3.6000000  -3.6000000  -3.6000000  -3.6000000
 NQMom=    0.0000000   0.0000000   0.0000000   0.0000000   0.0000000   0.0000000   0.0000000   0.0000000   0.0000000   0.0000000
 NMagM=    0.0000000   0.0000000   0.0000000   0.0000000   0.0000000   0.0000000   0.0000000   0.0000000   0.0000000   0.0000000
 AtZNuc=  16.0000000   6.0000000   6.0000000   6.0000000   6.0000000   6.0000000   6.0000000   6.0000000   6.0000000   6.0000000

  Atom        11          12          13          14          15          16          17          18          19          20
 IAtWgt=          12          12          12          12           1           1           1           1           1           1
 AtmWgt=  12.0000000  12.0000000  12.0000000  12.0000000   1.0078250   1.0078250   1.0078250   1.0078250   1.0078250   1.0078250
 NucSpn=           0           0           0           0           1           1           1           1           1           1
 AtZEff=  -3.6000000  -3.6000000  -3.6000000  -3.6000000  -1.0000000  -1.0000000  -1.0000000  -1.0000000  -1.0000000  -1.0000000
 NQMom=    0.0000000   0.0000000   0.0000000   0.0000000   0.0000000   0.0000000   0.0000000   0.0000000   0.0000000   0.0000000
 NMagM=    0.0000000   0.0000000   0.0000000   0.0000000   2.7928460   2.7928460   2.7928460   2.7928460   2.7928460   2.7928460
 AtZNuc=   6.0000000   6.0000000   6.0000000   6.0000000   1.0000000   1.0000000   1.0000000   1.0000000   1.0000000   1.0000000

  Atom        21          22          23          24
 IAtWgt=           1           1           1           1
 AtmWgt=   1.0078250   1.0078250   1.0078250   1.0078250
 NucSpn=           1           1           1           1
 AtZEff=  -1.0000000  -1.0000000  -1.0000000  -1.0000000
 NQMom=    0.0000000   0.0000000   0.0000000   0.0000000
 NMagM=    2.7928460   2.7928460   2.7928460   2.7928460
 AtZNuc=   1.0000000   1.0000000   1.0000000   1.0000000
 Leave Link  101 at Thu Jul  9 20:51:13 2020, MaxMem=  3145728000 cpu:         8.8
 (Enter /opt/apps/apps/gaussian/09E/sse4/l103.exe)

 GradGradGradGradGradGradGradGradGradGradGradGradGradGradGradGradGradGrad
 Berny optimization.
 Initialization pass.
                           ----------------------------
                           !    Initial Parameters    !
                           ! (Angstroms and Degrees)  !
 --------------------------                            --------------------------
 ! Name  Definition              Value          Derivative Info.                !
 --------------------------------------------------------------------------------
 ! R1    R(1,2)                  1.8525         calculate D2E/DX2 analytically  !
 ! R2    R(1,24)                 1.3539         calculate D2E/DX2 analytically  !
 ! R3    R(2,3)                  1.516          calculate D2E/DX2 analytically  !
 ! R4    R(2,4)                  1.5148         calculate D2E/DX2 analytically  !
 ! R5    R(2,15)                 1.102          calculate D2E/DX2 analytically  !
 ! R6    R(3,5)                  1.4119         calculate D2E/DX2 analytically  !
 ! R7    R(3,7)                  1.3909         calculate D2E/DX2 analytically  !
 ! R8    R(4,6)                  1.4122         calculate D2E/DX2 analytically  !
 ! R9    R(4,8)                  1.3906         calculate D2E/DX2 analytically  !
 ! R10   R(5,6)                  1.47           calculate D2E/DX2 analytically  !
 ! R11   R(5,9)                  1.3971         calculate D2E/DX2 analytically  !
 ! R12   R(6,10)                 1.3972         calculate D2E/DX2 analytically  !
 ! R13   R(7,11)                 1.4013         calculate D2E/DX2 analytically  !
 ! R14   R(7,16)                 1.0924         calculate D2E/DX2 analytically  !
 ! R15   R(8,12)                 1.401          calculate D2E/DX2 analytically  !
 ! R16   R(8,17)                 1.0931         calculate D2E/DX2 analytically  !
 ! R17   R(9,13)                 1.3989         calculate D2E/DX2 analytically  !
 ! R18   R(9,18)                 1.0925         calculate D2E/DX2 analytically  !
 ! R19   R(10,14)                1.3986         calculate D2E/DX2 analytically  !
 ! R20   R(10,19)                1.0925         calculate D2E/DX2 analytically  !
 ! R21   R(11,13)                1.4009         calculate D2E/DX2 analytically  !
 ! R22   R(11,20)                1.0925         calculate D2E/DX2 analytically  !
 ! R23   R(12,14)                1.4011         calculate D2E/DX2 analytically  !
 ! R24   R(12,21)                1.0925         calculate D2E/DX2 analytically  !
 ! R25   R(13,22)                1.0927         calculate D2E/DX2 analytically  !
 ! R26   R(14,23)                1.0926         calculate D2E/DX2 analytically  !
 ! A1    A(2,1,24)              96.1534         calculate D2E/DX2 analytically  !
 ! A2    A(1,2,3)              109.5952         calculate D2E/DX2 analytically  !
 ! A3    A(1,2,4)              114.7547         calculate D2E/DX2 analytically  !
 ! A4    A(1,2,15)             107.3218         calculate D2E/DX2 analytically  !
 ! A5    A(3,2,4)              102.8618         calculate D2E/DX2 analytically  !
 ! A6    A(3,2,15)             110.9474         calculate D2E/DX2 analytically  !
 ! A7    A(4,2,15)             111.3559         calculate D2E/DX2 analytically  !
 ! A8    A(2,3,5)              109.968          calculate D2E/DX2 analytically  !
 ! A9    A(2,3,7)              129.1599         calculate D2E/DX2 analytically  !
 ! A10   A(5,3,7)              120.8719         calculate D2E/DX2 analytically  !
 ! A11   A(2,4,6)              110.0138         calculate D2E/DX2 analytically  !
 ! A12   A(2,4,8)              129.3828         calculate D2E/DX2 analytically  !
 ! A13   A(6,4,8)              120.6023         calculate D2E/DX2 analytically  !
 ! A14   A(3,5,6)              108.5947         calculate D2E/DX2 analytically  !
 ! A15   A(3,5,9)              120.2352         calculate D2E/DX2 analytically  !
 ! A16   A(6,5,9)              131.1701         calculate D2E/DX2 analytically  !
 ! A17   A(4,6,5)              108.5569         calculate D2E/DX2 analytically  !
 ! A18   A(4,6,10)             120.3885         calculate D2E/DX2 analytically  !
 ! A19   A(5,6,10)             131.0546         calculate D2E/DX2 analytically  !
 ! A20   A(3,7,11)             118.7356         calculate D2E/DX2 analytically  !
 ! A21   A(3,7,16)             120.5032         calculate D2E/DX2 analytically  !
 ! A22   A(11,7,16)            120.7587         calculate D2E/DX2 analytically  !
 ! A23   A(4,8,12)             118.9383         calculate D2E/DX2 analytically  !
 ! A24   A(4,8,17)             120.7782         calculate D2E/DX2 analytically  !
 ! A25   A(12,8,17)            120.2812         calculate D2E/DX2 analytically  !
 ! A26   A(5,9,13)             118.8219         calculate D2E/DX2 analytically  !
 ! A27   A(5,9,18)             120.7421         calculate D2E/DX2 analytically  !
 ! A28   A(13,9,18)            120.4357         calculate D2E/DX2 analytically  !
 ! A29   A(6,10,14)            118.8347         calculate D2E/DX2 analytically  !
 ! A30   A(6,10,19)            120.7361         calculate D2E/DX2 analytically  !
 ! A31   A(14,10,19)           120.4292         calculate D2E/DX2 analytically  !
 ! A32   A(7,11,13)            120.5658         calculate D2E/DX2 analytically  !
 ! A33   A(7,11,20)            119.7254         calculate D2E/DX2 analytically  !
 ! A34   A(13,11,20)           119.7086         calculate D2E/DX2 analytically  !
 ! A35   A(8,12,14)            120.5519         calculate D2E/DX2 analytically  !
 ! A36   A(8,12,21)            119.7421         calculate D2E/DX2 analytically  !
 ! A37   A(14,12,21)           119.7058         calculate D2E/DX2 analytically  !
 ! A38   A(9,13,11)            120.7673         calculate D2E/DX2 analytically  !
 ! A39   A(9,13,22)            119.6442         calculate D2E/DX2 analytically  !
 ! A40   A(11,13,22)           119.5883         calculate D2E/DX2 analytically  !
 ! A41   A(10,14,12)           120.684          calculate D2E/DX2 analytically  !
 ! A42   A(10,14,23)           119.704          calculate D2E/DX2 analytically  !
 ! A43   A(12,14,23)           119.6118         calculate D2E/DX2 analytically  !
 ! D1    D(24,1,2,3)           171.1625         calculate D2E/DX2 analytically  !
 ! D2    D(24,1,2,4)           -73.7284         calculate D2E/DX2 analytically  !
 ! D3    D(24,1,2,15)           50.5955         calculate D2E/DX2 analytically  !
 ! D4    D(1,2,3,5)            123.1329         calculate D2E/DX2 analytically  !
 ! D5    D(1,2,3,7)            -56.7393         calculate D2E/DX2 analytically  !
 ! D6    D(4,2,3,5)              0.6398         calculate D2E/DX2 analytically  !
 ! D7    D(4,2,3,7)           -179.2323         calculate D2E/DX2 analytically  !
 ! D8    D(15,2,3,5)          -118.5283         calculate D2E/DX2 analytically  !
 ! D9    D(15,2,3,7)            61.5996         calculate D2E/DX2 analytically  !
 ! D10   D(1,2,4,6)           -119.6438         calculate D2E/DX2 analytically  !
 ! D11   D(1,2,4,8)             60.7334         calculate D2E/DX2 analytically  !
 ! D12   D(3,2,4,6)             -0.6904         calculate D2E/DX2 analytically  !
 ! D13   D(3,2,4,8)            179.6868         calculate D2E/DX2 analytically  !
 ! D14   D(15,2,4,6)           118.1928         calculate D2E/DX2 analytically  !
 ! D15   D(15,2,4,8)           -61.43           calculate D2E/DX2 analytically  !
 ! D16   D(2,3,5,6)             -0.3726         calculate D2E/DX2 analytically  !
 ! D17   D(2,3,5,9)            179.5301         calculate D2E/DX2 analytically  !
 ! D18   D(7,3,5,6)            179.5118         calculate D2E/DX2 analytically  !
 ! D19   D(7,3,5,9)             -0.5854         calculate D2E/DX2 analytically  !
 ! D20   D(2,3,7,11)          -179.6562         calculate D2E/DX2 analytically  !
 ! D21   D(2,3,7,16)             0.9112         calculate D2E/DX2 analytically  !
 ! D22   D(5,3,7,11)             0.4838         calculate D2E/DX2 analytically  !
 ! D23   D(5,3,7,16)          -178.9487         calculate D2E/DX2 analytically  !
 ! D24   D(2,4,6,5)              0.5022         calculate D2E/DX2 analytically  !
 ! D25   D(2,4,6,10)          -179.5278         calculate D2E/DX2 analytically  !
 ! D26   D(8,4,6,5)           -179.8365         calculate D2E/DX2 analytically  !
 ! D27   D(8,4,6,10)             0.1335         calculate D2E/DX2 analytically  !
 ! D28   D(2,4,8,12)           179.4405         calculate D2E/DX2 analytically  !
 ! D29   D(2,4,8,17)            -1.1112         calculate D2E/DX2 analytically  !
 ! D30   D(6,4,8,12)            -0.1477         calculate D2E/DX2 analytically  !
 ! D31   D(6,4,8,17)           179.3006         calculate D2E/DX2 analytically  !
 ! D32   D(3,5,6,4)             -0.0805         calculate D2E/DX2 analytically  !
 ! D33   D(3,5,6,10)           179.9539         calculate D2E/DX2 analytically  !
 ! D34   D(9,5,6,4)           -179.969          calculate D2E/DX2 analytically  !
 ! D35   D(9,5,6,10)             0.0655         calculate D2E/DX2 analytically  !
 ! D36   D(3,5,9,13)             0.3176         calculate D2E/DX2 analytically  !
 ! D37   D(3,5,9,18)          -179.8444         calculate D2E/DX2 analytically  !
 ! D38   D(6,5,9,13)          -179.8048         calculate D2E/DX2 analytically  !
 ! D39   D(6,5,9,18)             0.0332         calculate D2E/DX2 analytically  !
 ! D40   D(4,6,10,14)           -0.0366         calculate D2E/DX2 analytically  !
 ! D41   D(4,6,10,19)         -179.9963         calculate D2E/DX2 analytically  !
 ! D42   D(5,6,10,14)          179.9255         calculate D2E/DX2 analytically  !
 ! D43   D(5,6,10,19)           -0.0341         calculate D2E/DX2 analytically  !
 ! D44   D(3,7,11,13)           -0.1306         calculate D2E/DX2 analytically  !
 ! D45   D(3,7,11,20)         -179.9721         calculate D2E/DX2 analytically  !
 ! D46   D(16,7,11,13)         179.3004         calculate D2E/DX2 analytically  !
 ! D47   D(16,7,11,20)          -0.5411         calculate D2E/DX2 analytically  !
 ! D48   D(4,8,12,14)            0.0689         calculate D2E/DX2 analytically  !
 ! D49   D(4,8,12,21)          179.9138         calculate D2E/DX2 analytically  !
 ! D50   D(17,8,12,14)        -179.3822         calculate D2E/DX2 analytically  !
 ! D51   D(17,8,12,21)           0.4627         calculate D2E/DX2 analytically  !
 ! D52   D(5,9,13,11)            0.0325         calculate D2E/DX2 analytically  !
 ! D53   D(5,9,13,22)          179.8531         calculate D2E/DX2 analytically  !
 ! D54   D(18,9,13,11)        -179.8061         calculate D2E/DX2 analytically  !
 ! D55   D(18,9,13,22)           0.0145         calculate D2E/DX2 analytically  !
 ! D56   D(6,10,14,12)          -0.042          calculate D2E/DX2 analytically  !
 ! D57   D(6,10,14,23)        -179.9087         calculate D2E/DX2 analytically  !
 ! D58   D(19,10,14,12)        179.9177         calculate D2E/DX2 analytically  !
 ! D59   D(19,10,14,23)          0.051          calculate D2E/DX2 analytically  !
 ! D60   D(7,11,13,9)           -0.1278         calculate D2E/DX2 analytically  !
 ! D61   D(7,11,13,22)        -179.9485         calculate D2E/DX2 analytically  !
 ! D62   D(20,11,13,9)         179.7137         calculate D2E/DX2 analytically  !
 ! D63   D(20,11,13,22)         -0.107          calculate D2E/DX2 analytically  !
 ! D64   D(8,12,14,10)           0.0263         calculate D2E/DX2 analytically  !
 ! D65   D(8,12,14,23)         179.8931         calculate D2E/DX2 analytically  !
 ! D66   D(21,12,14,10)       -179.8187         calculate D2E/DX2 analytically  !
 ! D67   D(21,12,14,23)          0.0481         calculate D2E/DX2 analytically  !
 --------------------------------------------------------------------------------
 Trust Radius=3.00D-01 FncErr=1.00D-07 GrdErr=1.00D-07
 Number of steps in this run=      2 maximum allowed number of steps=      2.
 GradGradGradGradGradGradGradGradGradGradGradGradGradGradGradGradGradGrad

 Leave Link  103 at Thu Jul  9 20:51:13 2020, MaxMem=  3145728000 cpu:         0.2
 (Enter /opt/apps/apps/gaussian/09E/sse4/l202.exe)
                          Input orientation:                          
 ---------------------------------------------------------------------
 Center     Atomic      Atomic             Coordinates (Angstroms)
 Number     Number       Type             X           Y           Z
 ---------------------------------------------------------------------
      1         16           0        2.402529    0.686562    1.809610
      2          6           0        1.534181    0.494665    0.184581
      3          6           0        1.038735   -0.930597    0.038046
      4          6           0        0.264755    1.309092    0.043673
      5          6           0       -0.356353   -0.936173   -0.179098
      6          6           0       -0.836655    0.453160   -0.176819
      7          6           0        1.757080   -2.120361    0.094126
      8          6           0        0.090450    2.687745    0.096798
      9          6           0       -1.036332   -2.144080   -0.353747
     10          6           0       -2.118932    0.981087   -0.347748
     11          6           0        1.071469   -3.330134   -0.079504
     12          6           0       -1.195919    3.215541   -0.075131
     13          6           0       -0.311567   -3.339549   -0.302474
     14          6           0       -2.289753    2.368258   -0.295631
     15          1           0        2.260033    0.742749   -0.606602
     16          1           0        2.833639   -2.109901    0.279474
     17          1           0        0.939096    3.352242    0.278600
     18          1           0       -2.115256   -2.157904   -0.524809
     19          1           0       -2.975041    0.324170   -0.518600
     20          1           0        1.619636   -4.274207   -0.038094
     21          1           0       -1.348079    4.296625   -0.034467
     22          1           0       -0.830228   -4.292108   -0.434914
     23          1           0       -3.286548    2.796284   -0.425969
     24          1           0        2.888859    1.926934    1.568700
 ---------------------------------------------------------------------
                    Distance matrix (angstroms):
                    1          2          3          4          5
     1  S    0.000000
     2  C    1.852450   0.000000
     3  C    2.759271   1.516018   0.000000
     4  C    2.841858   1.514790   2.369659   0.000000
     5  C    3.768244   2.398683   1.411898   2.340218   0.000000
     6  C    3.806927   2.398582   2.340521   1.412210   1.470015
     7  C    3.352358   2.626067   1.390935   3.740417   2.437940
     8  C    3.504878   2.627101   3.741001   1.390643   3.661767
     9  C    4.951607   3.722944   2.435559   3.711491   1.397108
    10  C    5.018421   3.723602   3.711365   2.437777   2.609791
    11  C    4.634039   3.861726   2.402637   4.710453   2.789201
    12  C    4.785062   3.863167   4.711363   2.404627   4.237028
    13  C    5.294977   4.283131   2.782503   4.697002   2.406957
    14  C    5.410883   4.285256   4.698150   2.786121   3.830258
    15  H    2.421063   1.101988   2.169614   2.173646   3.137996
    16  H    3.216734   2.912278   2.161187   4.283023   3.429866
    17  H    3.404626   2.920395   4.290746   2.164345   4.503130
    18  H    5.826738   4.567028   3.430852   4.243546   2.169304
    19  H    5.871128   4.566904   4.242016   3.432564   2.925962
    20  H    5.351276   4.774833   3.394550   5.745922   3.881609
    21  H    5.522702   4.776013   5.746824   3.395982   5.327909
    22  H    6.346318   5.374700   3.875109   5.727256   3.398866
    23  H    6.466400   5.376769   5.728266   3.878666   4.751655
    24  H    1.353912   2.408803   3.732471   3.097315   4.667289
                    6          7          8          9         10
     6  C    0.000000
     7  C    3.663861   0.000000
     8  C    2.434699   5.088766   0.000000
     9  C    2.610907   2.829187   4.981883   0.000000
    10  C    1.397196   4.983743   2.826954   3.307375   0.000000
    11  C    4.238363   1.401342   6.099864   2.434082   5.370031
    12  C    2.787500   6.100876   1.401026   5.369230   2.432911
    13  C    3.830947   2.433723   6.053867   1.398950   4.683643
    14  C    2.406908   6.056109   2.433401   4.683550   1.398621
    15  H    3.139753   2.990214   2.997477   4.389048   4.393079
    16  H    4.499839   1.092449   5.529545   3.921583   5.871591
    17  H    3.430069   5.536470   1.093073   5.874669   3.919977
    18  H    2.928067   3.921667   5.360210   1.092488   3.143983
    19  H    2.169366   5.361355   3.919494   3.142934   1.092544
    20  H    5.329223   2.162274   7.129192   3.419246   6.456848
    21  H    3.879953   7.129954   2.162196   6.456145   3.418355
    22  H    4.752286   3.419142   7.060361   2.159419   5.429082
    23  H    3.399159   7.062724   3.418944   5.429170   2.159719
    24  H    4.370160   4.453749   3.252141   5.972946   5.444756
                   11         12         13         14         15
    11  C    0.000000
    12  C    6.927259   0.000000
    13  C    1.400925   6.618381   0.000000
    14  C    6.619380   1.401064   6.040888   0.000000
    15  H    4.275382   4.282612   4.834333   4.841439   0.000000
    16  H    2.173264   6.687557   3.426809   6.828895   3.041673
    17  H    6.693273   2.168434   6.832413   3.423950   3.055799
    18  H    3.424563   5.470037   2.167721   4.535319   5.250108
    19  H    5.470008   3.423735   4.534716   2.167402   5.252519
    20  H    1.092464   8.001565   2.161718   7.711808   5.089514
    21  H    8.001480   1.092497   7.710859   2.161841   5.096650
    22  H    2.160592   7.525155   1.092665   6.819830   5.910074
    23  H    7.526310   2.160923   6.820133   1.092609   5.917279
    24  H    5.801400   4.587821   6.440486   5.521641   2.555319
                   16         17         18         19         20
    16  H    0.000000
    17  H    5.781375   0.000000
    18  H    5.014054   6.351082   0.000000
    19  H    6.348417   5.012506   2.626778   0.000000
    20  H    2.501774   7.663299   4.320306   6.518207   0.000000
    21  H    7.656952   2.494202   6.518431   4.319929   9.070089
    22  H    4.323921   7.878812   2.492830   5.090899   2.481859
    23  H    7.875595   4.319904   5.091727   2.493384   8.614693
    24  H    4.238064   2.738145   6.790423   6.427363   6.530456
                   21         22         23         24
    21  H    0.000000
    22  H    8.613643   0.000000
    23  H    2.482329   7.501926   0.000000
    24  H    5.112458   7.518148   6.547528   0.000000
 Symmetry turned off by external request.
 Stoichiometry    C13H10S
 Framework group  C1[X(C13H10S)]
 Deg. of freedom    66
 Full point group                 C1      NOp   1
 Rotational constants (GHZ):      0.9494127      0.5656467      0.3687071
 Leave Link  202 at Thu Jul  9 20:51:13 2020, MaxMem=  3145728000 cpu:         0.9
 (Enter /opt/apps/apps/gaussian/09E/sse4/l301.exe)
 Standard basis: def2SVP (5D, 7F)
 Ernie: Thresh=  0.10000D-02 Tol=  0.10000D-05 Strict=F.
   250 basis functions,   432 primitive gaussians,   264 cartesian basis functions
    52 alpha electrons       52 beta electrons
       nuclear repulsion energy       893.8563562502 Hartrees.
 IExCor=  402 DFT=T Ex+Corr=B3LYP ExCW=0 ScaHFX=  0.200000
 ScaDFX=  0.800000  0.720000  1.000000  0.810000 ScalE2=  1.000000  1.000000
 IRadAn=      5 IRanWt=     -1 IRanGd=            0 ICorTp=0 IEmpDi=141
 NAtoms=   24 NActive=   24 NUniq=   24 SFac= 1.00D+00 NAtFMM=   60 NAOKFM=F Big=F
 Integral buffers will be    131072 words long.
 Raffenetti 2 integral format.
 Two-electron integral symmetry is turned off.
 R6Disp:  Grimme-D3(BJ) Dispersion energy=       -0.0574423916 Hartrees.
 Nuclear repulsion after empirical dispersion term =      893.7989138586 Hartrees.
 Leave Link  301 at Thu Jul  9 20:51:13 2020, MaxMem=  3145728000 cpu:         1.0
 (Enter /opt/apps/apps/gaussian/09E/sse4/l302.exe)
 NPDir=0 NMtPBC=     1 NCelOv=     1 NCel=       1 NClECP=     1 NCelD=      1
         NCelK=      1 NCelE2=     1 NClLst=     1 CellRange=     0.0.
 One-electron integrals computed using PRISM.
   1 Symmetry operations used in ECPInt.
 ECPInt:  NShTT=    6786 NPrTT=   25422 LenC2=    6522 LenP2D=   18054.
 LDataN:  DoStor=T MaxTD1= 4 Len=   56
 NBasis=   250 RedAO= T EigKep=  2.58D-04  NBF=   250
 NBsUse=   250 1.00D-06 EigRej= -1.00D+00 NBFU=   250
 Precomputing XC quadrature grid using
 IXCGrd= 4 IRadAn=           5 IRanWt=          -1 IRanGd=           0 AccXCQ= 0.00D+00.
 Generated NRdTot=       0 NPtTot=           0 NUsed=           0 NTot=          32
 NSgBfM=   262   262   262   262   262 MxSgAt=    24 MxSgA2=    24.
 Leave Link  302 at Thu Jul  9 20:51:14 2020, MaxMem=  3145728000 cpu:        10.0
 (Enter /opt/apps/apps/gaussian/09E/sse4/l303.exe)
 DipDrv:  MaxL=1.
 Leave Link  303 at Thu Jul  9 20:51:14 2020, MaxMem=  3145728000 cpu:         0.7
 (Enter /opt/apps/apps/gaussian/09E/sse4/l401.exe)
 ExpMin= 1.22D-01 ExpMax= 9.18D+03 ExpMxC= 1.38D+03 IAcc=3 IRadAn=         5 AccDes= 0.00D+00
 Harris functional with IExCor=  402 and IRadAn=       5 diagonalized for initial guess.
 HarFok:  IExCor=  402 AccDes= 0.00D+00 IRadAn=         5 IDoV= 1 UseB2=F ITyADJ=14
 ICtDFT=  3500011 ScaDFX=  1.000000  1.000000  1.000000  1.000000
 FoFCou: FMM=F IPFlag=           0 FMFlag=      100000 FMFlg1=           0
         NFxFlg=           0 DoJE=T BraDBF=F KetDBF=T FulRan=T
         wScrn=  0.000000 ICntrl=     500 IOpCl=  0 I1Cent=   200000004 NGrid=           0
         NMat0=    1 NMatS0=      1 NMatT0=    0 NMatD0=    1 NMtDS0=    0 NMtDT0=    0
 Symmetry not used in FoFCou.
 Harris En= -899.121959870936    
 JPrj=0 DoOrth=F DoCkMO=F.
 Leave Link  401 at Thu Jul  9 20:51:15 2020, MaxMem=  3145728000 cpu:        22.3
 (Enter /opt/apps/apps/gaussian/09E/sse4/l502.exe)
 Closed shell SCF:
 Using DIIS extrapolation, IDIIS=  1040.
 Two-electron integral symmetry not used.
 Keep R1 ints in memory in canonical form, NReq=501749174.
 IVT=      233494 IEndB=      233494 NGot=  3145728000 MDV=  2653283507
 LenX=  2653283507 LenY=  2653213370
 Requested convergence on RMS density matrix=1.00D-08 within 128 cycles.
 Requested convergence on MAX density matrix=1.00D-06.
 Requested convergence on             energy=1.00D-06.
 No special actions if energy rises.
 FoFCou: FMM=F IPFlag=           0 FMFlag=           0 FMFlg1=           0
         NFxFlg=           0 DoJE=F BraDBF=F KetDBF=F FulRan=T
         wScrn=  0.000000 ICntrl=     600 IOpCl=  0 I1Cent=           0 NGrid=           0
         NMat0=    1 NMatS0=  31375 NMatT0=    0 NMatD0=    1 NMtDS0=    0 NMtDT0=    0
 Symmetry not used in FoFCou.
 Integral accuracy reduced to 1.0D-05 until final iterations.

 Cycle   1  Pass 0  IDiag  1:
 E= -898.950898379088    
 DIIS: error= 3.81D-02 at cycle   1 NSaved=   1.
 NSaved= 1 IEnMin= 1 EnMin= -898.950898379088     IErMin= 1 ErrMin= 3.81D-02
 ErrMax= 3.81D-02  0.00D+00 EMaxC= 1.00D-01 BMatC= 1.99D-01 BMatP= 1.99D-01
 IDIUse=3 WtCom= 6.19D-01 WtEn= 3.81D-01
 Coeff-Com:  0.100D+01
 Coeff-En:   0.100D+01
 Coeff:      0.100D+01
 Gap=     0.325 Goal=   None    Shift=    0.000
 GapD=    0.325 DampG=1.000 DampE=0.500 DampFc=0.5000 IDamp=-1.
 Damping current iteration by 5.00D-01
 RMSDP=6.42D-03 MaxDP=1.09D-01              OVMax= 1.49D-01

 Cycle   2  Pass 0  IDiag  1:
 E= -899.068839746449     Delta-E=       -0.117941367361 Rises=F Damp=T
 DIIS: error= 4.71D-03 at cycle   2 NSaved=   2.
 NSaved= 2 IEnMin= 2 EnMin= -899.068839746449     IErMin= 2 ErrMin= 4.71D-03
 ErrMax= 4.71D-03  0.00D+00 EMaxC= 1.00D-01 BMatC= 9.51D-03 BMatP= 1.99D-01
 IDIUse=3 WtCom= 9.53D-01 WtEn= 4.71D-02
 Coeff-Com:  0.392D-02 0.996D+00
 Coeff-En:   0.000D+00 0.100D+01
 Coeff:      0.373D-02 0.996D+00
 Gap=     0.260 Goal=   None    Shift=    0.000
 RMSDP=2.18D-03 MaxDP=6.89D-02 DE=-1.18D-01 OVMax= 1.02D-01

 Cycle   3  Pass 0  IDiag  1:
 E= -899.197395753473     Delta-E=       -0.128556007024 Rises=F Damp=F
 DIIS: error= 2.99D-03 at cycle   3 NSaved=   3.
 NSaved= 3 IEnMin= 3 EnMin= -899.197395753473     IErMin= 3 ErrMin= 2.99D-03
 ErrMax= 2.99D-03  0.00D+00 EMaxC= 1.00D-01 BMatC= 2.46D-03 BMatP= 9.51D-03
 IDIUse=3 WtCom= 9.70D-01 WtEn= 2.99D-02
 Coeff-Com: -0.444D-01 0.309D+00 0.736D+00
 Coeff-En:   0.000D+00 0.000D+00 0.100D+01
 Coeff:     -0.431D-01 0.300D+00 0.743D+00
 Gap=     0.190 Goal=   None    Shift=    0.000
 RMSDP=5.62D-04 MaxDP=1.82D-02 DE=-1.29D-01 OVMax= 1.63D-02

 Cycle   4  Pass 0  IDiag  1:
 E= -899.199689751834     Delta-E=       -0.002293998361 Rises=F Damp=F
 DIIS: error= 1.04D-03 at cycle   4 NSaved=   4.
 NSaved= 4 IEnMin= 4 EnMin= -899.199689751834     IErMin= 4 ErrMin= 1.04D-03
 ErrMax= 1.04D-03  0.00D+00 EMaxC= 1.00D-01 BMatC= 3.90D-04 BMatP= 2.46D-03
 IDIUse=3 WtCom= 9.90D-01 WtEn= 1.04D-02
 Coeff-Com: -0.211D-01 0.950D-01 0.342D+00 0.584D+00
 Coeff-En:   0.000D+00 0.000D+00 0.164D-02 0.998D+00
 Coeff:     -0.208D-01 0.940D-01 0.338D+00 0.588D+00
 Gap=     0.181 Goal=   None    Shift=    0.000
 RMSDP=1.43D-04 MaxDP=4.80D-03 DE=-2.29D-03 OVMax= 8.71D-03

 Cycle   5  Pass 0  IDiag  1:
 E= -899.200014823026     Delta-E=       -0.000325071193 Rises=F Damp=F
 DIIS: error= 6.35D-04 at cycle   5 NSaved=   5.
 NSaved= 5 IEnMin= 5 EnMin= -899.200014823026     IErMin= 5 ErrMin= 6.35D-04
 ErrMax= 6.35D-04  0.00D+00 EMaxC= 1.00D-01 BMatC= 9.94D-05 BMatP= 3.90D-04
 IDIUse=3 WtCom= 9.94D-01 WtEn= 6.35D-03
 Coeff-Com: -0.765D-02 0.200D-01 0.114D+00 0.362D+00 0.512D+00
 Coeff-En:   0.000D+00 0.000D+00 0.000D+00 0.214D+00 0.786D+00
 Coeff:     -0.760D-02 0.199D-01 0.113D+00 0.361D+00 0.514D+00
 Gap=     0.181 Goal=   None    Shift=    0.000
 RMSDP=6.04D-05 MaxDP=1.57D-03 DE=-3.25D-04 OVMax= 4.12D-03

 Cycle   6  Pass 0  IDiag  1:
 E= -899.200120582768     Delta-E=       -0.000105759741 Rises=F Damp=F
 DIIS: error= 1.58D-04 at cycle   6 NSaved=   6.
 NSaved= 6 IEnMin= 6 EnMin= -899.200120582768     IErMin= 6 ErrMin= 1.58D-04
 ErrMax= 1.58D-04  0.00D+00 EMaxC= 1.00D-01 BMatC= 7.80D-06 BMatP= 9.94D-05
 IDIUse=3 WtCom= 9.98D-01 WtEn= 1.58D-03
 Coeff-Com: -0.341D-02 0.610D-02 0.478D-01 0.183D+00 0.311D+00 0.455D+00
 Coeff-En:   0.000D+00 0.000D+00 0.000D+00 0.000D+00 0.000D+00 0.100D+01
 Coeff:     -0.341D-02 0.609D-02 0.477D-01 0.183D+00 0.311D+00 0.456D+00
 Gap=     0.181 Goal=   None    Shift=    0.000
 RMSDP=1.78D-05 MaxDP=5.06D-04 DE=-1.06D-04 OVMax= 1.15D-03

 Cycle   7  Pass 0  IDiag  1:
 E= -899.200128958514     Delta-E=       -0.000008375747 Rises=F Damp=F
 DIIS: error= 3.63D-05 at cycle   7 NSaved=   7.
 NSaved= 7 IEnMin= 7 EnMin= -899.200128958514     IErMin= 7 ErrMin= 3.63D-05
 ErrMax= 3.63D-05  0.00D+00 EMaxC= 1.00D-01 BMatC= 5.51D-07 BMatP= 7.80D-06
 IDIUse=1 WtCom= 1.00D+00 WtEn= 0.00D+00
 Coeff-Com: -0.842D-03 0.589D-03 0.109D-01 0.503D-01 0.101D+00 0.252D+00
 Coeff-Com:  0.586D+00
 Coeff:     -0.842D-03 0.589D-03 0.109D-01 0.503D-01 0.101D+00 0.252D+00
 Coeff:      0.586D+00
 Gap=     0.181 Goal=   None    Shift=    0.000
 RMSDP=5.16D-06 MaxDP=1.31D-04 DE=-8.38D-06 OVMax= 2.62D-04

 Initial convergence to 1.0D-05 achieved.  Increase integral accuracy.
 Cycle   8  Pass 1  IDiag  1:
 E= -899.200128397301     Delta-E=        0.000000561214 Rises=F Damp=F
 DIIS: error= 7.08D-06 at cycle   1 NSaved=   1.
 NSaved= 1 IEnMin= 1 EnMin= -899.200128397301     IErMin= 1 ErrMin= 7.08D-06
 ErrMax= 7.08D-06  0.00D+00 EMaxC= 1.00D-01 BMatC= 3.57D-08 BMatP= 3.57D-08
 IDIUse=1 WtCom= 1.00D+00 WtEn= 0.00D+00
 Coeff-Com:  0.100D+01
 Coeff:      0.100D+01
 Gap=     0.181 Goal=   None    Shift=    0.000
 RMSDP=5.16D-06 MaxDP=1.31D-04 DE= 5.61D-07 OVMax= 1.50D-04

 Cycle   9  Pass 1  IDiag  1:
 E= -899.200128363782     Delta-E=        0.000000033518 Rises=F Damp=F
 DIIS: error= 1.43D-05 at cycle   2 NSaved=   2.
 NSaved= 2 IEnMin= 1 EnMin= -899.200128397301     IErMin= 1 ErrMin= 7.08D-06
 ErrMax= 1.43D-05  0.00D+00 EMaxC= 1.00D-01 BMatC= 7.00D-08 BMatP= 3.57D-08
 IDIUse=1 WtCom= 1.00D+00 WtEn= 0.00D+00
 Coeff-Com:  0.594D+00 0.406D+00
 Coeff:      0.594D+00 0.406D+00
 Gap=     0.181 Goal=   None    Shift=    0.000
 RMSDP=1.89D-06 MaxDP=5.75D-05 DE= 3.35D-08 OVMax= 1.14D-04

 Cycle  10  Pass 1  IDiag  1:
 E= -899.200128436639     Delta-E=       -0.000000072856 Rises=F Damp=F
 DIIS: error= 4.89D-06 at cycle   3 NSaved=   3.
 NSaved= 3 IEnMin= 3 EnMin= -899.200128436639     IErMin= 3 ErrMin= 4.89D-06
 ErrMax= 4.89D-06  0.00D+00 EMaxC= 1.00D-01 BMatC= 6.21D-09 BMatP= 3.57D-08
 IDIUse=1 WtCom= 1.00D+00 WtEn= 0.00D+00
 Coeff-Com:  0.197D+00 0.241D+00 0.562D+00
 Coeff:      0.197D+00 0.241D+00 0.562D+00
 Gap=     0.181 Goal=   None    Shift=    0.000
 RMSDP=5.59D-07 MaxDP=2.21D-05 DE=-7.29D-08 OVMax= 2.96D-05

 Cycle  11  Pass 1  IDiag  1:
 E= -899.200128442790     Delta-E=       -0.000000006151 Rises=F Damp=F
 DIIS: error= 1.61D-06 at cycle   4 NSaved=   4.
 NSaved= 4 IEnMin= 4 EnMin= -899.200128442790     IErMin= 4 ErrMin= 1.61D-06
 ErrMax= 1.61D-06  0.00D+00 EMaxC= 1.00D-01 BMatC= 7.91D-10 BMatP= 6.21D-09
 IDIUse=1 WtCom= 1.00D+00 WtEn= 0.00D+00
 Coeff-Com:  0.276D-02 0.623D-01 0.314D+00 0.621D+00
 Coeff:      0.276D-02 0.623D-01 0.314D+00 0.621D+00
 Gap=     0.181 Goal=   None    Shift=    0.000
 RMSDP=2.01D-07 MaxDP=7.02D-06 DE=-6.15D-09 OVMax= 9.76D-06

 Cycle  12  Pass 1  IDiag  1:
 E= -899.200128443603     Delta-E=       -0.000000000813 Rises=F Damp=F
 DIIS: error= 5.15D-07 at cycle   5 NSaved=   5.
 NSaved= 5 IEnMin= 5 EnMin= -899.200128443603     IErMin= 5 ErrMin= 5.15D-07
 ErrMax= 5.15D-07  0.00D+00 EMaxC= 1.00D-01 BMatC= 7.03D-11 BMatP= 7.91D-10
 IDIUse=1 WtCom= 1.00D+00 WtEn= 0.00D+00
 Coeff-Com: -0.927D-02 0.225D-01 0.146D+00 0.353D+00 0.489D+00
 Coeff:     -0.927D-02 0.225D-01 0.146D+00 0.353D+00 0.489D+00
 Gap=     0.181 Goal=   None    Shift=    0.000
 RMSDP=4.86D-08 MaxDP=2.03D-06 DE=-8.13D-10 OVMax= 2.56D-06

 Cycle  13  Pass 1  IDiag  1:
 E= -899.200128443677     Delta-E=       -0.000000000074 Rises=F Damp=F
 DIIS: error= 7.02D-08 at cycle   6 NSaved=   6.
 NSaved= 6 IEnMin= 6 EnMin= -899.200128443677     IErMin= 6 ErrMin= 7.02D-08
 ErrMax= 7.02D-08  0.00D+00 EMaxC= 1.00D-01 BMatC= 2.15D-12 BMatP= 7.03D-11
 IDIUse=1 WtCom= 1.00D+00 WtEn= 0.00D+00
 Coeff-Com: -0.482D-02 0.828D-02 0.566D-01 0.143D+00 0.240D+00 0.557D+00
 Coeff:     -0.482D-02 0.828D-02 0.566D-01 0.143D+00 0.240D+00 0.557D+00
 Gap=     0.181 Goal=   None    Shift=    0.000
 RMSDP=1.20D-08 MaxDP=2.58D-07 DE=-7.41D-11 OVMax= 4.41D-07

 Cycle  14  Pass 1  IDiag  1:
 E= -899.200128443670     Delta-E=        0.000000000007 Rises=F Damp=F
 DIIS: error= 2.52D-08 at cycle   7 NSaved=   7.
 NSaved= 7 IEnMin= 6 EnMin= -899.200128443677     IErMin= 7 ErrMin= 2.52D-08
 ErrMax= 2.52D-08  0.00D+00 EMaxC= 1.00D-01 BMatC= 2.32D-13 BMatP= 2.15D-12
 IDIUse=1 WtCom= 1.00D+00 WtEn= 0.00D+00
 Coeff-Com: -0.149D-02 0.203D-02 0.141D-01 0.366D-01 0.741D-01 0.289D+00
 Coeff-Com:  0.586D+00
 Coeff:     -0.149D-02 0.203D-02 0.141D-01 0.366D-01 0.741D-01 0.289D+00
 Coeff:      0.586D+00
 Gap=     0.181 Goal=   None    Shift=    0.000
 RMSDP=4.01D-09 MaxDP=1.20D-07 DE= 6.59D-12 OVMax= 2.74D-07

 SCF Done:  E(RB3LYP) =  -899.200128444     A.U. after   14 cycles
            NFock= 14  Conv=0.40D-08     -V/T= 2.0076
 KE= 8.924587989033D+02 PE=-3.892754396357D+03 EE= 1.207296555152D+03
 Leave Link  502 at Thu Jul  9 20:51:57 2020, MaxMem=  3145728000 cpu:       286.4
 (Enter /opt/apps/apps/gaussian/09E/sse4/l801.exe)
 DoSCS=F DFT=T ScalE2(SS,OS)=  1.000000  1.000000
 Range of M.O.s used for correlation:     1   250
 NBasis=   250 NAE=    52 NBE=    52 NFC=     0 NFV=     0
 NROrb=    250 NOA=    52 NOB=    52 NVA=   198 NVB=   198

 **** Warning!!: The largest alpha MO coefficient is  0.16431879D+02

 Leave Link  801 at Thu Jul  9 20:51:57 2020, MaxMem=  3145728000 cpu:         0.4
 (Enter /opt/apps/apps/gaussian/09E/sse4/l1002.exe)
 Minotr:  Closed shell wavefunction.
          Direct CPHF calculation.
          Differentiating once with respect to electric field.
                with respect to dipole field.
          Electric field/nuclear overlap derivatives assumed to be zero.
          Requested convergence is 1.0D-08 RMS, and 1.0D-07 maximum.
          Secondary convergence is 1.0D-12 RMS, and 1.0D-12 maximum.
          NewPWx=F KeepS1=T KeepF1=T KeepIn=T MapXYZ=F SortEE=F KeepMc=T.
          MDV=    3145727554 using IRadAn=       1.
 Generate precomputed XC quadrature information.
 Keep R1 ints in memory in canonical form, NReq=501524954.
 FoFCou: FMM=F IPFlag=           0 FMFlag=           0 FMFlg1=           0
         NFxFlg=           0 DoJE=F BraDBF=F KetDBF=F FulRan=T
         wScrn=  0.000000 ICntrl=     600 IOpCl=  0 I1Cent=           0 NGrid=           0
         NMat0=    1 NMatS0=  31375 NMatT0=    0 NMatD0=    1 NMtDS0=    0 NMtDT0=    0
 Symmetry not used in FoFCou.
          Solving linear equations simultaneously, MaxMat=       0.
          There are     3 degrees of freedom in the 1st order CPHF.  IDoFFX=0 NUNeed=     3.
      3 vectors produced by pass  0 Test12= 3.43D-13 3.33D-08 XBig12= 3.00D+02 1.06D+01.
 AX will form     3 AO Fock derivatives at one time.
      3 vectors produced by pass  1 Test12= 3.43D-13 3.33D-08 XBig12= 9.12D+01 1.93D+00.
      3 vectors produced by pass  2 Test12= 3.43D-13 3.33D-08 XBig12= 1.35D+01 6.30D-01.
      3 vectors produced by pass  3 Test12= 3.43D-13 3.33D-08 XBig12= 3.07D+00 3.83D-01.
      3 vectors produced by pass  4 Test12= 3.43D-13 3.33D-08 XBig12= 5.60D-01 1.47D-01.
      3 vectors produced by pass  5 Test12= 3.43D-13 3.33D-08 XBig12= 1.20D-01 7.42D-02.
      3 vectors produced by pass  6 Test12= 3.43D-13 3.33D-08 XBig12= 3.87D-02 5.75D-02.
      3 vectors produced by pass  7 Test12= 3.43D-13 3.33D-08 XBig12= 4.20D-03 1.53D-02.
      3 vectors produced by pass  8 Test12= 3.43D-13 3.33D-08 XBig12= 1.82D-03 9.67D-03.
      3 vectors produced by pass  9 Test12= 3.43D-13 3.33D-08 XBig12= 1.40D-04 1.83D-03.
      3 vectors produced by pass 10 Test12= 3.43D-13 3.33D-08 XBig12= 9.20D-06 5.65D-04.
      3 vectors produced by pass 11 Test12= 3.43D-13 3.33D-08 XBig12= 1.40D-06 2.40D-04.
      3 vectors produced by pass 12 Test12= 3.43D-13 3.33D-08 XBig12= 2.85D-07 1.07D-04.
      3 vectors produced by pass 13 Test12= 3.43D-13 3.33D-08 XBig12= 1.22D-08 1.75D-05.
      3 vectors produced by pass 14 Test12= 3.43D-13 3.33D-08 XBig12= 3.99D-10 3.09D-06.
      3 vectors produced by pass 15 Test12= 3.43D-13 3.33D-08 XBig12= 1.77D-11 6.89D-07.
      3 vectors produced by pass 16 Test12= 3.43D-13 3.33D-08 XBig12= 5.99D-13 1.01D-07.
 InvSVY:  IOpt=1 It=  1 EMax= 3.38D-15
 Solved reduced A of dimension    51 with     3 vectors.
 End of Minotr F.D. properties file   721 does not exist.
 End of Minotr F.D. properties file   722 does not exist.
 End of Minotr F.D. properties file   788 does not exist.
 Leave Link 1002 at Thu Jul  9 20:52:43 2020, MaxMem=  3145728000 cpu:       722.0
 (Enter /opt/apps/apps/gaussian/09E/sse4/l1101.exe)
 Using compressed storage, NAtomX=    24.
 Will process     25 centers per pass.
   1 Symmetry operations used in ECPInt.
 ECPInt:  NShTT=    6786 NPrTT=   25422 LenC2=    6522 LenP2D=   18054.
 LDataN:  DoStor=T MaxTD1= 5 Len=  102
 R6Disp: Adding Grimme-D3(BJ) dispersion energy 1st derivatives to the gradient.
 Leave Link 1101 at Thu Jul  9 20:52:44 2020, MaxMem=  3145728000 cpu:        10.9
 (Enter /opt/apps/apps/gaussian/09E/sse4/l1102.exe)
 Symmetrizing basis deriv contribution to polar:
 IMax=3 JMax=2 DiffMx= 0.00D+00
 Leave Link 1102 at Thu Jul  9 20:52:44 2020, MaxMem=  3145728000 cpu:         0.7
 (Enter /opt/apps/apps/gaussian/09E/sse4/l1110.exe)
 Forming Gx(P) for the SCF density, NAtomX=    24.
 Integral derivatives from FoFJK, PRISM(SPDF).
 Do as many integral derivatives as possible in FoFJK.
 G2DrvN: MDV=    3145727704.
 G2DrvN: will do    25 centers at a time, making    1 passes.
 PxScal for G2LodP:  IOpCl= 0 ISclPx=1 IMOff=     1 NMtTot=     4 NTT=   31375 ScalPx= 3.02D+00
 Calling FoFCou, ICntrl=  3107 FMM=F I1Cent=   0 AccDes= 0.00D+00.
 FoFJK:  IHMeth= 1 ICntrl=    3107 DoSepK=F KAlg= 0 I1Cent=   0 FoldK=F
 IRaf=         0 NMat=   1 IRICut=       1 DoRegI=T DoRafI=F ISym2E= 0.
 FoFCou: FMM=F IPFlag=           0 FMFlag=      100000 FMFlg1=           0
         NFxFlg=           0 DoJE=F BraDBF=F KetDBF=F FulRan=T
         wScrn=  0.000000 ICntrl=    3107 IOpCl=  0 I1Cent=           0 NGrid=           0
         NMat0=    1 NMatS0=      1 NMatT0=    0 NMatD0=    4 NMtDS0=    3 NMtDT0=    0
 Symmetry not used in FoFCou.
 End of G2Drv F.D. properties file   721 does not exist.
 End of G2Drv F.D. properties file   722 does not exist.
 End of G2Drv F.D. properties file   788 does not exist.
 Leave Link 1110 at Thu Jul  9 20:54:10 2020, MaxMem=  3145728000 cpu:      1374.7
 (Enter /opt/apps/apps/gaussian/09E/sse4/l1002.exe)
 Minotr:  Closed shell wavefunction.
          IDoAtm=111111111111111111111111
          Direct CPHF calculation.
          Differentiating once with respect to electric field.
                with respect to dipole field.
          Differentiating once with respect to nuclear coordinates.
          Requested convergence is 1.0D-08 RMS, and 1.0D-07 maximum.
          Secondary convergence is 1.0D-12 RMS, and 1.0D-12 maximum.
          NewPWx=T KeepS1=F KeepF1=F KeepIn=T MapXYZ=F SortEE=F KeepMc=T.
          MDV=    3145727506 using IRadAn=       1.
 Generate precomputed XC quadrature information.
 Keep R1 ints in memory in canonical form, NReq=501525506.
 FoFCou: FMM=F IPFlag=           0 FMFlag=           0 FMFlg1=           0
         NFxFlg=           0 DoJE=F BraDBF=F KetDBF=F FulRan=T
         wScrn=  0.000000 ICntrl=     600 IOpCl=  0 I1Cent=           0 NGrid=           0
         NMat0=    1 NMatS0=  31375 NMatT0=    0 NMatD0=    1 NMtDS0=    0 NMtDT0=    0
 Symmetry not used in FoFCou.
          Solving linear equations simultaneously, MaxMat=       0.
          There are    75 degrees of freedom in the 1st order CPHF.  IDoFFX=5 NUNeed=    75.
 Will reuse    3 saved solutions.
     69 vectors produced by pass  0 Test12= 1.37D-14 1.33D-09 XBig12= 1.50D-01 1.42D-01.
 AX will form    69 AO Fock derivatives at one time.
     69 vectors produced by pass  1 Test12= 1.37D-14 1.33D-09 XBig12= 3.74D-02 3.38D-02.
     69 vectors produced by pass  2 Test12= 1.37D-14 1.33D-09 XBig12= 3.81D-04 3.37D-03.
     69 vectors produced by pass  3 Test12= 1.37D-14 1.33D-09 XBig12= 1.65D-06 2.73D-04.
     69 vectors produced by pass  4 Test12= 1.37D-14 1.33D-09 XBig12= 2.54D-09 5.93D-06.
     60 vectors produced by pass  5 Test12= 1.37D-14 1.33D-09 XBig12= 2.19D-12 1.65D-07.
     18 vectors produced by pass  6 Test12= 1.37D-14 1.33D-09 XBig12= 2.18D-15 5.30D-09.
 InvSVY:  IOpt=1 It=  1 EMax= 5.55D-16
 Solved reduced A of dimension   423 with    75 vectors.
 FullF1:  Do perturbations    1 to     3.
 Isotropic polarizability for W=    0.000000      153.98 Bohr**3.
 FullF1:  Do perturbations    1 to     6.
 End of Minotr F.D. properties file   721 does not exist.
 End of Minotr F.D. properties file   722 does not exist.
 End of Minotr F.D. properties file   788 does not exist.
 Leave Link 1002 at Thu Jul  9 20:55:24 2020, MaxMem=  3145728000 cpu:      1174.6
 (Enter /opt/apps/apps/gaussian/09E/sse4/l601.exe)
 Copying SCF densities to generalized density rwf, IOpCl= 0 IROHF=0.

 **********************************************************************

            Population analysis using the SCF density.

 **********************************************************************

 Alpha  occ. eigenvalues --  -88.84095 -10.23205 -10.19958 -10.19813 -10.19797
 Alpha  occ. eigenvalues --  -10.19754 -10.19684 -10.19606 -10.19593 -10.19592
 Alpha  occ. eigenvalues --  -10.19556 -10.19539 -10.19506 -10.19458  -7.93543
 Alpha  occ. eigenvalues --   -5.90491  -5.90137  -5.89368  -0.89014  -0.84281
 Alpha  occ. eigenvalues --   -0.80763  -0.77160  -0.74118  -0.73224  -0.71261
 Alpha  occ. eigenvalues --   -0.66103  -0.63076  -0.58571  -0.57710  -0.57642
 Alpha  occ. eigenvalues --   -0.51921  -0.49779  -0.48413  -0.46473  -0.45097
 Alpha  occ. eigenvalues --   -0.44316  -0.43651  -0.42676  -0.41967  -0.40409
 Alpha  occ. eigenvalues --   -0.38588  -0.36639  -0.36338  -0.36002  -0.34741
 Alpha  occ. eigenvalues --   -0.34004  -0.33524  -0.29111  -0.26308  -0.25397
 Alpha  occ. eigenvalues --   -0.23762  -0.22460
 Alpha virt. eigenvalues --   -0.04389  -0.03220  -0.00543   0.02193   0.03112
 Alpha virt. eigenvalues --    0.06062   0.06641   0.07451   0.09111   0.09622
 Alpha virt. eigenvalues --    0.11262   0.12072   0.13464   0.14363   0.16225
 Alpha virt. eigenvalues --    0.17215   0.18310   0.20009   0.20616   0.24767
 Alpha virt. eigenvalues --    0.25232   0.25893   0.28425   0.29446   0.30563
 Alpha virt. eigenvalues --    0.30734   0.33117   0.34256   0.35624   0.36494
 Alpha virt. eigenvalues --    0.37614   0.37909   0.39362   0.40120   0.43261
 Alpha virt. eigenvalues --    0.43444   0.43792   0.44297   0.46747   0.47013
 Alpha virt. eigenvalues --    0.47116   0.47840   0.48408   0.48652   0.49849
 Alpha virt. eigenvalues --    0.51270   0.51842   0.52152   0.53468   0.54317
 Alpha virt. eigenvalues --    0.56812   0.56997   0.57274   0.59908   0.61131
 Alpha virt. eigenvalues --    0.62561   0.63118   0.63489   0.63570   0.64232
 Alpha virt. eigenvalues --    0.65189   0.65658   0.65932   0.66764   0.67501
 Alpha virt. eigenvalues --    0.68152   0.69056   0.69762   0.71201   0.71437
 Alpha virt. eigenvalues --    0.71985   0.72570   0.72995   0.74405   0.75490
 Alpha virt. eigenvalues --    0.76043   0.76647   0.77001   0.80368   0.80644
 Alpha virt. eigenvalues --    0.83218   0.86139   0.88233   0.91911   0.92869
 Alpha virt. eigenvalues --    0.93932   0.94117   0.97739   1.00888   1.03711
 Alpha virt. eigenvalues --    1.06871   1.07742   1.09573   1.13846   1.14763
 Alpha virt. eigenvalues --    1.17696   1.20056   1.20155   1.23018   1.24705
 Alpha virt. eigenvalues --    1.24835   1.25728   1.25919   1.26895   1.28007
 Alpha virt. eigenvalues --    1.28749   1.30870   1.32807   1.35021   1.37688
 Alpha virt. eigenvalues --    1.38238   1.48216   1.49771   1.56941   1.59808
 Alpha virt. eigenvalues --    1.63017   1.64147   1.64784   1.68345   1.68989
 Alpha virt. eigenvalues --    1.69762   1.70177   1.71034   1.72770   1.72825
 Alpha virt. eigenvalues --    1.73112   1.74447   1.75123   1.75919   1.76967
 Alpha virt. eigenvalues --    1.77651   1.79461   1.79527   1.82260   1.83294
 Alpha virt. eigenvalues --    1.85179   1.87023   1.87343   1.90433   1.94371
 Alpha virt. eigenvalues --    1.94442   1.94946   1.96426   1.97193   1.97640
 Alpha virt. eigenvalues --    1.99466   2.01165   2.01511   2.04533   2.09421
 Alpha virt. eigenvalues --    2.09523   2.12027   2.12665   2.14370   2.15591
 Alpha virt. eigenvalues --    2.16920   2.18961   2.19841   2.21861   2.23393
 Alpha virt. eigenvalues --    2.26024   2.27505   2.29485   2.30869   2.32412
 Alpha virt. eigenvalues --    2.33631   2.34116   2.38782   2.39582   2.44256
 Alpha virt. eigenvalues --    2.48451   2.52041   2.56505   2.58178   2.58968
 Alpha virt. eigenvalues --    2.61565   2.62283   2.62514   2.62648   2.68201
 Alpha virt. eigenvalues --    2.69334   2.72310   2.73024   2.73264   2.81055
 Alpha virt. eigenvalues --    2.84446   2.88094   2.90704   2.93466   2.96782
 Alpha virt. eigenvalues --    3.01392   3.06184   3.06438   3.13350   3.18031
 Alpha virt. eigenvalues --    3.32526   3.53117   3.65580
          Condensed to atoms (all electrons):
               1          2          3          4          5          6
     1  S   15.606937   0.295208  -0.087307  -0.070191   0.006233   0.001632
     2  C    0.295208   5.675250   0.134408   0.087669  -0.112523  -0.091781
     3  C   -0.087307   0.134408   5.530256  -0.051863   0.278913  -0.018620
     4  C   -0.070191   0.087669  -0.051863   5.498678  -0.017186   0.295629
     5  C    0.006233  -0.112523   0.278913  -0.017186   5.403460   0.166293
     6  C    0.001632  -0.091781  -0.018620   0.295629   0.166293   5.378851
     7  C    0.007719  -0.121386   0.266498   0.018005   0.041635   0.021157
     8  C    0.004254  -0.110595   0.015001   0.270424   0.022014   0.049891
     9  C   -0.000368   0.026691  -0.001781   0.011129   0.302001  -0.106732
    10  C   -0.000657   0.025561   0.013030  -0.003448  -0.108804   0.296332
    11  C   -0.000310   0.015549   0.109260  -0.001757  -0.153750   0.001261
    12  C   -0.000528   0.014615  -0.001558   0.109860   0.000925  -0.150583
    13  C    0.000077  -0.000757  -0.158886   0.000009   0.108667   0.016401
    14  C    0.000117  -0.000467  -0.000103  -0.157124   0.016705   0.106806
    15  H   -0.023474   0.267092   0.029392   0.020357   0.002188  -0.000315
    16  H    0.009360  -0.022788  -0.076478   0.001527   0.017198  -0.000921
    17  H    0.003867  -0.020222   0.001172  -0.079729  -0.000858   0.017642
    18  H    0.000005  -0.000735   0.019534  -0.000439  -0.058938  -0.026199
    19  H    0.000008  -0.000722  -0.000520   0.019651  -0.026319  -0.057841
    20  H   -0.000007  -0.000468   0.015906   0.000023  -0.001270   0.000013
    21  H   -0.000005  -0.000454   0.000023   0.016150   0.000013  -0.001393
    22  H   -0.000000   0.000036  -0.001220   0.000009   0.015681  -0.000478
    23  H    0.000000   0.000035   0.000010  -0.001194  -0.000478   0.015737
    24  H    0.276453  -0.004198   0.006991  -0.010533  -0.000210  -0.000618
               7          8          9         10         11         12
     1  S    0.007719   0.004254  -0.000368  -0.000657  -0.000310  -0.000528
     2  C   -0.121386  -0.110595   0.026691   0.025561   0.015549   0.014615
     3  C    0.266498   0.015001  -0.001781   0.013030   0.109260  -0.001558
     4  C    0.018005   0.270424   0.011129  -0.003448  -0.001757   0.109860
     5  C    0.041635   0.022014   0.302001  -0.108804  -0.153750   0.000925
     6  C    0.021157   0.049891  -0.106732   0.296332   0.001261  -0.150583
     7  C    5.171126  -0.000599  -0.131028  -0.000439   0.253692   0.000009
     8  C   -0.000599   5.155262  -0.000695  -0.134994   0.000001   0.269507
     9  C   -0.131028  -0.000695   5.216535  -0.011369   0.092877   0.000107
    10  C   -0.000439  -0.134994  -0.011369   5.227148   0.000110   0.093047
    11  C    0.253692   0.000001   0.092877   0.000110   5.099356  -0.000000
    12  C    0.000009   0.269507   0.000107   0.093047  -0.000000   5.078315
    13  C    0.101032   0.000004   0.271810  -0.000366   0.260019   0.000001
    14  C    0.000000   0.099133  -0.000284   0.274101   0.000001   0.264131
    15  H   -0.003430  -0.000177  -0.000691  -0.000820  -0.000562  -0.000521
    16  H    0.448076   0.000010  -0.001726   0.000009  -0.076056   0.000000
    17  H    0.000001   0.442542   0.000002  -0.001985  -0.000000  -0.075541
    18  H   -0.001983   0.000044   0.433928   0.004939   0.014675  -0.000020
    19  H    0.000036  -0.001980   0.004918   0.432571  -0.000019   0.014651
    20  H   -0.072280   0.000000   0.014962  -0.000001   0.436372  -0.000000
    21  H   -0.000000  -0.072001  -0.000001   0.015093   0.000000   0.435765
    22  H    0.014762  -0.000000  -0.070352   0.000005  -0.074359   0.000000
    23  H   -0.000000   0.014933   0.000004  -0.070734   0.000000  -0.074528
    24  H   -0.000035   0.004473   0.000010   0.000025   0.000014   0.000164
              13         14         15         16         17         18
     1  S    0.000077   0.000117  -0.023474   0.009360   0.003867   0.000005
     2  C   -0.000757  -0.000467   0.267092  -0.022788  -0.020222  -0.000735
     3  C   -0.158886  -0.000103   0.029392  -0.076478   0.001172   0.019534
     4  C    0.000009  -0.157124   0.020357   0.001527  -0.079729  -0.000439
     5  C    0.108667   0.016705   0.002188   0.017198  -0.000858  -0.058938
     6  C    0.016401   0.106806  -0.000315  -0.000921   0.017642  -0.026199
     7  C    0.101032   0.000000  -0.003430   0.448076   0.000001  -0.001983
     8  C    0.000004   0.099133  -0.000177   0.000010   0.442542   0.000044
     9  C    0.271810  -0.000284  -0.000691  -0.001726   0.000002   0.433928
    10  C   -0.000366   0.274101  -0.000820   0.000009  -0.001985   0.004939
    11  C    0.260019   0.000001  -0.000562  -0.076056  -0.000000   0.014675
    12  C    0.000001   0.264131  -0.000521   0.000000  -0.075541  -0.000020
    13  C    5.074477  -0.000010   0.000107   0.014931  -0.000000  -0.079127
    14  C   -0.000010   5.070995   0.000112  -0.000000   0.015400   0.000147
    15  H    0.000107   0.000112   0.656549   0.001732   0.002673   0.000017
    16  H    0.014931  -0.000000   0.001732   0.725330  -0.000002   0.000037
    17  H   -0.000000   0.015400   0.002673  -0.000002   0.747465   0.000001
    18  H   -0.079127   0.000147   0.000017   0.000037   0.000001   0.738783
    19  H    0.000165  -0.079328   0.000019   0.000000   0.000042   0.000512
    20  H   -0.074236   0.000000   0.000010  -0.012455   0.000000  -0.000290
    21  H    0.000000  -0.074551   0.000008  -0.000000  -0.013175  -0.000000
    22  H    0.434464  -0.000000  -0.000000  -0.000274   0.000000  -0.012841
    23  H   -0.000000   0.434650  -0.000000   0.000000  -0.000295   0.000008
    24  H   -0.000001  -0.000006  -0.006222  -0.000148   0.002026  -0.000000
              19         20         21         22         23         24
     1  S    0.000008  -0.000007  -0.000005  -0.000000   0.000000   0.276453
     2  C   -0.000722  -0.000468  -0.000454   0.000036   0.000035  -0.004198
     3  C   -0.000520   0.015906   0.000023  -0.001220   0.000010   0.006991
     4  C    0.019651   0.000023   0.016150   0.000009  -0.001194  -0.010533
     5  C   -0.026319  -0.001270   0.000013   0.015681  -0.000478  -0.000210
     6  C   -0.057841   0.000013  -0.001393  -0.000478   0.015737  -0.000618
     7  C    0.000036  -0.072280  -0.000000   0.014762  -0.000000  -0.000035
     8  C   -0.001980   0.000000  -0.072001  -0.000000   0.014933   0.004473
     9  C    0.004918   0.014962  -0.000001  -0.070352   0.000004   0.000010
    10  C    0.432571  -0.000001   0.015093   0.000005  -0.070734   0.000025
    11  C   -0.000019   0.436372   0.000000  -0.074359   0.000000   0.000014
    12  C    0.014651  -0.000000   0.435765   0.000000  -0.074528   0.000164
    13  C    0.000165  -0.074236   0.000000   0.434464  -0.000000  -0.000001
    14  C   -0.079328   0.000000  -0.074551  -0.000000   0.434650  -0.000006
    15  H    0.000019   0.000010   0.000008  -0.000000  -0.000000  -0.006222
    16  H    0.000000  -0.012455  -0.000000  -0.000274   0.000000  -0.000148
    17  H    0.000042   0.000000  -0.013175   0.000000  -0.000295   0.002026
    18  H    0.000512  -0.000290  -0.000000  -0.012841   0.000008  -0.000000
    19  H    0.739468  -0.000000  -0.000293   0.000008  -0.012834   0.000000
    20  H   -0.000000   0.722636  -0.000000  -0.013553  -0.000000  -0.000000
    21  H   -0.000293  -0.000000   0.725195  -0.000000  -0.013529   0.000003
    22  H    0.000008  -0.013553  -0.000000   0.724983  -0.000000   0.000000
    23  H   -0.012834  -0.000000  -0.013529  -0.000000   0.725540  -0.000000
    24  H    0.000000  -0.000000   0.000003   0.000000  -0.000000   0.682505
 Mulliken charges:
               1
     1  S   -0.029024
     2  C   -0.055019
     3  C   -0.022056
     4  C    0.044343
     5  C    0.098412
     6  C    0.087835
     7  C   -0.012568
     8  C   -0.026452
     9  C   -0.049946
    10  C   -0.048354
    11  C    0.023628
    12  C    0.022181
    13  C    0.031220
    14  C    0.029575
    15  H    0.055959
    16  H   -0.027363
    17  H   -0.041025
    18  H   -0.032058
    19  H   -0.032192
    20  H   -0.015361
    21  H   -0.016847
    22  H   -0.016870
    23  H   -0.017324
    24  H    0.049306
 Sum of Mulliken charges =  -0.00000
 Mulliken charges with hydrogens summed into heavy atoms:
               1
     1  S    0.020282
     2  C    0.000940
     3  C   -0.022056
     4  C    0.044343
     5  C    0.098412
     6  C    0.087835
     7  C   -0.039932
     8  C   -0.067477
     9  C   -0.082004
    10  C   -0.080546
    11  C    0.008267
    12  C    0.005334
    13  C    0.014350
    14  C    0.012251
 APT charges:
               1
     1  S   -0.105935
     2  C    0.222444
     3  C   -0.082321
     4  C   -0.097094
     5  C    0.066752
     6  C    0.055714
     7  C    0.018769
     8  C    0.020176
     9  C   -0.039557
    10  C   -0.027978
    11  C   -0.066946
    12  C   -0.062151
    13  C   -0.036744
    14  C   -0.047288
    15  H   -0.049710
    16  H    0.042783
    17  H    0.027623
    18  H    0.033700
    19  H    0.033254
    20  H    0.023934
    21  H    0.023140
    22  H    0.020364
    23  H    0.020602
    24  H    0.006471
 Sum of APT charges =  -0.00000
 APT charges with hydrogens summed into heavy atoms:
               1
     1  S   -0.099465
     2  C    0.172733
     3  C   -0.082321
     4  C   -0.097094
     5  C    0.066752
     6  C    0.055714
     7  C    0.061552
     8  C    0.047799
     9  C   -0.005858
    10  C    0.005277
    11  C   -0.043011
    12  C   -0.039011
    13  C   -0.016380
    14  C   -0.026686
 Electronic spatial extent (au):  <R**2>=           2976.4432
 Charge=             -0.0000 electrons
 Dipole moment (field-independent basis, Debye):
    X=             -0.1206    Y=              0.5221    Z=             -1.0727  Tot=              1.1991
 Quadrupole moment (field-independent basis, Debye-Ang):
   XX=            -81.1991   YY=            -77.8415   ZZ=            -95.2844
   XY=              2.3095   XZ=             -0.0653   YZ=              1.0321
 Traceless Quadrupole moment (field-independent basis, Debye-Ang):
   XX=              3.5759   YY=              6.9335   ZZ=            -10.5094
   XY=              2.3095   XZ=             -0.0653   YZ=              1.0321
 Octapole moment (field-independent basis, Debye-Ang**2):
  XXX=            -64.4608  YYY=             -7.3013  ZZZ=            -50.2039  XYY=            -12.9314
  XXY=              5.3197  XXZ=            -21.9007  XZZ=            -18.5093  YZZ=             -1.2666
  YYZ=            -13.2864  XYZ=              2.5183
 Hexadecapole moment (field-independent basis, Debye-Ang**3):
 XXXX=          -1358.3398 YYYY=          -2137.5547 ZZZZ=           -402.4413 XXXY=            195.8877
 XXXZ=           -218.3723 YYYX=            177.2119 YYYZ=            -52.6042 ZZZX=           -233.4182
 ZZZY=            -74.9629 XXYY=           -558.6948 XXZZ=           -309.8610 YYZZ=           -489.1155
 XXYZ=            -14.1754 YYXZ=            -53.3046 ZZXY=             81.6834
 N-N= 8.937989138586D+02 E-N=-3.892754398935D+03  KE= 8.924587989033D+02
  Exact polarizability: 167.750 -15.004 214.378  24.241   8.099  79.820
 Approx polarizability: 287.970 -13.254 336.988  37.269  10.946 131.319
 No NMR shielding tensors so no spin-rotation constants.
 Leave Link  601 at Thu Jul  9 20:55:24 2020, MaxMem=  3145728000 cpu:         7.4
 (Enter /opt/apps/apps/gaussian/09E/sse4/l701.exe)
 Compute integral second derivatives.
 ... and contract with generalized density number  0.
 R6Disp: Adding Grimme-D3(BJ) dispersion energy 2nd derivatives to the Hessian.
   1 Symmetry operations used in ECPInt.
 ECPInt:  NShTT=    6786 NPrTT=   25422 LenC2=    6522 LenP2D=   18054.
 LDataN:  DoStor=T MaxTD1= 6 Len=  172
 Leave Link  701 at Thu Jul  9 20:55:25 2020, MaxMem=  3145728000 cpu:         9.1
 (Enter /opt/apps/apps/gaussian/09E/sse4/l702.exe)
 L702 exits ... SP integral derivatives will be done elsewhere.
 Leave Link  702 at Thu Jul  9 20:55:25 2020, MaxMem=  3145728000 cpu:         0.3
 (Enter /opt/apps/apps/gaussian/09E/sse4/l703.exe)
 Compute integral second derivatives, UseDBF=F ICtDFT=           0.
 Integral derivatives from FoFJK, PRISM(SPDF).
 Calling FoFJK, ICntrl=    100127 FMM=F ISym2X=0 I1Cent= 0 IOpClX= 0 NMat=1 NMatS=1 NMatT=0.
 FoFJK:  IHMeth= 1 ICntrl=  100127 DoSepK=F KAlg= 0 I1Cent=   0 FoldK=F
 IRaf=         0 NMat=   1 IRICut=       1 DoRegI=T DoRafI=F ISym2E= 0.
 FoFCou: FMM=F IPFlag=           0 FMFlag=      100000 FMFlg1=         800
         NFxFlg=           0 DoJE=F BraDBF=F KetDBF=F FulRan=T
         wScrn=  0.000000 ICntrl=  100127 IOpCl=  0 I1Cent=           0 NGrid=           0
         NMat0=    1 NMatS0=      1 NMatT0=    0 NMatD0=    1 NMtDS0=    0 NMtDT0=    0
 Symmetry not used in FoFCou.
 Leave Link  703 at Thu Jul  9 20:56:35 2020, MaxMem=  3145728000 cpu:      1127.0
 (Enter /opt/apps/apps/gaussian/09E/sse4/l716.exe)
 Dipole        =-4.74322422D-02 2.05392541D-01-4.22051828D-01
 Polarizability= 1.67749978D+02-1.50044063D+01 2.14378355D+02
                 2.42411239D+01 8.09909499D+00 7.98200794D+01
 HyperPolar    =-7.42170268D+01 4.25132426D+01 7.41388652D+00
                 1.15329407D+01-3.55135804D+01 1.37760467D+01
                -1.76462251D+01 4.81399913D+00 9.05006458D+00
                -3.74855263D+01
 Full mass-weighted force constant matrix:
 Low frequencies ---   -5.0116   -1.6478   -0.0015   -0.0005    0.0011    1.9623
 Low frequencies ---   65.0207  110.6328  120.2814
 Diagonal vibrational polarizability:
       12.9405517       3.1510180      10.6727618
 Diagonal vibrational hyperpolarizability:
      187.7199561      14.1448436     -14.4760898
 Harmonic frequencies (cm**-1), IR intensities (KM/Mole), Raman scattering
 activities (A**4/AMU), depolarization ratios for plane and unpolarized
 incident light, reduced masses (AMU), force constants (mDyne/A),
 and normal coordinates:
                      1                      2                      3
                      A                      A                      A
 Frequencies --     65.0201               110.6328               120.2814
 Red. masses --      4.2842                 5.1584                 5.2542
 Frc consts  --      0.0107                 0.0372                 0.0448
 IR Inten    --      0.2243                 2.1592                 0.3478
 Raman Activ --      4.5193                 0.7115                 1.8528
 Depolar (P) --      0.7494                 0.5442                 0.7454
 Depolar (U) --      0.8568                 0.7048                 0.8541
  Atom  AN      X      Y      Z        X      Y      Z        X      Y      Z
     1  16     0.16   0.07  -0.08    -0.12  -0.08  -0.04    -0.09   0.20   0.01
     2   6    -0.03  -0.01   0.04     0.04   0.02  -0.14     0.03  -0.06  -0.02
     3   6    -0.04  -0.02   0.07     0.05   0.03  -0.16    -0.00  -0.06   0.07
     4   6    -0.04  -0.01   0.07     0.04   0.02  -0.14     0.05  -0.04  -0.12
     5   6    -0.02  -0.01  -0.08     0.05   0.02  -0.18     0.01  -0.04  -0.04
     6   6    -0.01  -0.01  -0.08     0.05   0.02  -0.18     0.03  -0.03  -0.01
     7   6    -0.06  -0.03   0.18     0.03   0.02   0.03    -0.04  -0.09   0.13
     8   6    -0.06  -0.02   0.18     0.01   0.01   0.05     0.09  -0.04  -0.14
     9   6    -0.01  -0.00  -0.15     0.04   0.01  -0.03     0.01  -0.01  -0.18
    10   6    -0.00  -0.00  -0.16     0.03   0.02  -0.06     0.01  -0.01   0.18
    11   6    -0.06  -0.02   0.12     0.01   0.01   0.22    -0.05  -0.07   0.02
    12   6    -0.05  -0.02   0.13    -0.01   0.00   0.21     0.08  -0.02   0.03
    13   6    -0.03  -0.01  -0.05     0.01   0.00   0.19    -0.02  -0.03  -0.17
    14   6    -0.02  -0.01  -0.05    -0.00   0.01   0.15     0.04  -0.01   0.22
    15   1    -0.11  -0.05  -0.04     0.10   0.06  -0.07     0.08  -0.16  -0.01
    16   1    -0.08  -0.03   0.30     0.02   0.03   0.08    -0.06  -0.12   0.23
    17   1    -0.08  -0.03   0.33     0.00   0.01   0.11     0.13  -0.06  -0.23
    18   1     0.01   0.01  -0.27     0.04   0.00  -0.03     0.03   0.02  -0.31
    19   1     0.02   0.00  -0.28     0.03   0.02  -0.08    -0.03   0.00   0.31
    20   1    -0.07  -0.03   0.21    -0.02   0.00   0.41    -0.08  -0.08   0.05
    21   1    -0.07  -0.03   0.23    -0.04  -0.01   0.39     0.10  -0.02   0.04
    22   1    -0.02  -0.00  -0.10    -0.01  -0.01   0.35    -0.02  -0.01  -0.29
    23   1    -0.01  -0.01  -0.10    -0.02  -0.00   0.28     0.02   0.00   0.39
    24   1     0.38  -0.07  -0.33    -0.24   0.01   0.17    -0.03   0.14  -0.19
                      4                      5                      6
                      A                      A                      A
 Frequencies --    168.7422               211.2961               214.5263
 Red. masses --      4.9717                 2.1904                 1.5159
 Frc consts  --      0.0834                 0.0576                 0.0411
 IR Inten    --      0.4139                 8.2062                10.8795
 Raman Activ --      2.8603                 2.1894                 9.0082
 Depolar (P) --      0.7448                 0.5745                 0.6591
 Depolar (U) --      0.8538                 0.7298                 0.7945
  Atom  AN      X      Y      Z        X      Y      Z        X      Y      Z
     1  16    -0.07   0.20   0.02    -0.06  -0.01  -0.02    -0.00   0.00   0.06
     2   6     0.02  -0.05  -0.01    -0.07  -0.02  -0.00     0.04   0.01   0.01
     3   6     0.02  -0.05  -0.03    -0.06  -0.00   0.00     0.03   0.01  -0.03
     4   6     0.03  -0.05  -0.00    -0.05  -0.03  -0.01     0.03   0.02  -0.04
     5   6     0.00  -0.04   0.03    -0.07  -0.03   0.00     0.04   0.02  -0.02
     6   6     0.03  -0.03  -0.05    -0.07  -0.01  -0.00     0.04   0.01  -0.03
     7   6     0.01  -0.07  -0.19     0.02   0.05   0.01    -0.00  -0.01  -0.03
     8   6     0.04  -0.06   0.17     0.04  -0.02   0.01    -0.02   0.02  -0.04
     9   6    -0.05  -0.03   0.17     0.02  -0.10   0.01    -0.01   0.05   0.01
    10   6     0.06   0.01  -0.16    -0.04   0.09   0.00     0.02  -0.05   0.01
    11   6    -0.03  -0.06  -0.15     0.11   0.01   0.01    -0.04   0.01  -0.02
    12   6     0.06  -0.03   0.15     0.08   0.06   0.01    -0.05  -0.03  -0.01
    13   6    -0.07  -0.05   0.10     0.11  -0.05   0.01    -0.05   0.03   0.02
    14   6     0.08   0.01  -0.07     0.04   0.11   0.01    -0.04  -0.06   0.02
    15   1     0.03  -0.05   0.01    -0.06  -0.03   0.00     0.09   0.02   0.06
    16   1     0.03  -0.10  -0.33     0.02   0.15   0.03    -0.00  -0.05  -0.03
    17   1     0.04  -0.10   0.31     0.09  -0.09   0.03    -0.05   0.05  -0.04
    18   1    -0.07  -0.01   0.31     0.02  -0.19   0.02    -0.02   0.09   0.04
    19   1     0.06   0.04  -0.28    -0.09   0.15   0.00     0.04  -0.09   0.03
    20   1    -0.03  -0.06  -0.27     0.16   0.04   0.00    -0.07  -0.01  -0.02
    21   1     0.06  -0.03   0.28     0.13   0.07   0.02    -0.09  -0.04  -0.00
    22   1    -0.11  -0.04   0.20     0.16  -0.08   0.01    -0.08   0.04   0.06
    23   1     0.10   0.03  -0.14     0.06   0.15   0.01    -0.06  -0.09   0.06
    24   1    -0.06   0.15  -0.19     0.65  -0.36  -0.35     0.80  -0.38  -0.29
                      7                      8                      9
                      A                      A                      A
 Frequencies --    299.7871               322.5324               425.3379
 Red. masses --      4.4647                 5.7284                 5.9634
 Frc consts  --      0.2364                 0.3511                 0.6356
 IR Inten    --      0.0659                 1.6481                 0.3924
 Raman Activ --      5.6005                 3.0838                 6.5759
 Depolar (P) --      0.7267                 0.0642                 0.2610
 Depolar (U) --      0.8417                 0.1207                 0.4140
  Atom  AN      X      Y      Z        X      Y      Z        X      Y      Z
     1  16    -0.01  -0.06  -0.04     0.19   0.03   0.17    -0.01  -0.00  -0.01
     2   6     0.02  -0.01  -0.02    -0.05  -0.02   0.14    -0.05  -0.02   0.03
     3   6    -0.04  -0.00   0.20    -0.07  -0.00  -0.01    -0.09   0.09   0.03
     4   6     0.05   0.04  -0.17    -0.05  -0.03  -0.07    -0.01  -0.13   0.05
     5   6    -0.02   0.01   0.17    -0.07  -0.03  -0.13    -0.08   0.03   0.02
     6   6     0.04   0.03  -0.11    -0.07  -0.00  -0.18    -0.05  -0.07   0.03
     7   6    -0.02   0.01   0.18    -0.02   0.02  -0.12     0.02   0.23  -0.04
     8   6     0.00   0.03  -0.12    -0.01  -0.02  -0.21     0.16  -0.17  -0.05
     9   6    -0.02   0.01   0.19    -0.02  -0.09  -0.03    -0.12   0.10  -0.07
    10   6     0.04   0.00  -0.18    -0.06   0.07  -0.12    -0.03  -0.15  -0.08
    11   6     0.04   0.03  -0.13     0.03  -0.02  -0.04    -0.01   0.27   0.03
    12   6    -0.06  -0.01   0.14    -0.01   0.04   0.01     0.16  -0.22   0.04
    13   6     0.03   0.03  -0.11     0.01  -0.08   0.12    -0.02   0.19   0.04
    14   6    -0.03  -0.02   0.06    -0.07   0.07   0.16     0.10  -0.16   0.05
    15   1     0.05  -0.18  -0.05    -0.01  -0.02   0.18    -0.09  -0.02  -0.00
    16   1    -0.02   0.03   0.22    -0.01   0.08  -0.20     0.03   0.31  -0.12
    17   1    -0.01   0.06  -0.15     0.04  -0.04  -0.33     0.22  -0.22  -0.16
    18   1    -0.03  -0.00   0.25    -0.02  -0.16  -0.03    -0.10   0.10  -0.15
    19   1     0.07  -0.02  -0.24    -0.09   0.12  -0.15    -0.02  -0.14  -0.19
    20   1     0.08   0.04  -0.38     0.08   0.01  -0.06    -0.02   0.26   0.05
    21   1    -0.11  -0.02   0.37     0.03   0.04   0.08     0.15  -0.22   0.05
    22   1     0.07   0.04  -0.32     0.01  -0.11   0.29     0.09   0.13   0.08
    23   1    -0.06  -0.04   0.19    -0.09   0.09   0.41     0.15  -0.04   0.09
    24   1    -0.04  -0.02   0.09    -0.24   0.19   0.18    -0.02  -0.01  -0.06
                     10                     11                     12
                      A                      A                      A
 Frequencies --    437.9387               460.6467               492.1502
 Red. masses --      3.2101                 2.9623                 4.8167
 Frc consts  --      0.3627                 0.3704                 0.6874
 IR Inten    --      4.6622                 0.1150                 0.2525
 Raman Activ --      0.1104                 1.2987                10.0272
 Depolar (P) --      0.7352                 0.7410                 0.1991
 Depolar (U) --      0.8474                 0.8512                 0.3321
  Atom  AN      X      Y      Z        X      Y      Z        X      Y      Z
     1  16    -0.03  -0.00  -0.03     0.01  -0.02   0.00    -0.07  -0.02  -0.12
     2   6    -0.00   0.00   0.01     0.02  -0.06   0.00    -0.09  -0.02   0.17
     3   6     0.02  -0.03   0.07    -0.08  -0.02   0.19     0.01  -0.05   0.20
     4   6    -0.01   0.03   0.08     0.07   0.03  -0.18    -0.04   0.03   0.20
     5   6     0.01  -0.01   0.17    -0.06   0.01   0.10     0.08   0.02  -0.11
     6   6    -0.00   0.01   0.17     0.04   0.04  -0.10     0.07   0.02  -0.11
     7   6     0.03  -0.04  -0.15     0.01   0.03  -0.11     0.04  -0.05   0.04
     8   6     0.00   0.05  -0.14    -0.02   0.02   0.10     0.01   0.06   0.03
     9   6     0.05   0.00  -0.14    -0.00  -0.00  -0.12     0.04   0.05  -0.05
    10   6     0.05   0.03  -0.13     0.00  -0.01   0.11     0.06  -0.01  -0.06
    11   6    -0.02  -0.06   0.11     0.02   0.02   0.01     0.03  -0.02  -0.15
    12   6    -0.05   0.03   0.11    -0.02  -0.00  -0.02     0.02   0.04  -0.15
    13   6    -0.00  -0.02   0.02     0.01   0.01   0.09    -0.02   0.02   0.17
    14   6    -0.01   0.02   0.02    -0.01  -0.01  -0.08     0.01  -0.03   0.17
    15   1    -0.04  -0.01  -0.03     0.09  -0.30  -0.01    -0.22  -0.06   0.03
    16   1     0.08  -0.05  -0.40     0.06   0.10  -0.40     0.05  -0.07  -0.01
    17   1     0.04   0.09  -0.42    -0.10   0.04   0.38     0.01   0.07  -0.03
    18   1     0.09   0.03  -0.40     0.05  -0.03  -0.43     0.05   0.08  -0.08
    19   1     0.10   0.03  -0.41    -0.02  -0.06   0.41     0.08  -0.02  -0.10
    20   1    -0.04  -0.07   0.20     0.05   0.03  -0.07     0.02  -0.04  -0.37
    21   1    -0.07   0.03   0.19    -0.05  -0.01   0.06     0.00   0.04  -0.37
    22   1    -0.03  -0.01  -0.00     0.03  -0.01   0.11    -0.09   0.03   0.37
    23   1    -0.02  -0.01  -0.02    -0.02  -0.02  -0.07    -0.04  -0.08   0.37
    24   1     0.08  -0.05  -0.05    -0.04   0.01   0.02    -0.05  -0.03  -0.15
                     13                     14                     15
                      A                      A                      A
 Frequencies --    520.0919               576.5921               588.5783
 Red. masses --      4.8280                 4.0648                 3.7521
 Frc consts  --      0.7695                 0.7962                 0.7658
 IR Inten    --      0.1355                 0.0644                 0.0473
 Raman Activ --      2.7460                 4.3420                 1.8202
 Depolar (P) --      0.7443                 0.7205                 0.6829
 Depolar (U) --      0.8534                 0.8376                 0.8116
  Atom  AN      X      Y      Z        X      Y      Z        X      Y      Z
     1  16    -0.00   0.01   0.00     0.00  -0.01  -0.01    -0.01   0.01   0.00
     2   6    -0.01   0.00  -0.00    -0.06   0.22   0.00     0.03  -0.15   0.00
     3   6    -0.18   0.04  -0.08     0.07   0.11   0.04    -0.04  -0.07  -0.08
     4   6     0.12   0.15   0.09    -0.12   0.04  -0.04     0.08  -0.02   0.07
     5   6    -0.15  -0.05  -0.08     0.06  -0.07   0.15    -0.07   0.04   0.09
     6   6     0.15   0.05   0.07    -0.01  -0.10  -0.15     0.04   0.08  -0.09
     7   6    -0.15   0.11  -0.00    -0.04   0.03  -0.08     0.05  -0.02  -0.10
     8   6     0.06   0.18   0.01     0.01   0.04   0.07    -0.02  -0.03   0.09
     9   6    -0.10  -0.18  -0.01     0.03  -0.07   0.05    -0.05   0.04   0.10
    10   6     0.19  -0.08   0.01     0.01  -0.07  -0.05     0.02   0.05  -0.10
    11   6     0.01   0.03  -0.00    -0.10   0.01   0.09     0.03  -0.02   0.16
    12   6    -0.03   0.02   0.00     0.08   0.06  -0.09    -0.01  -0.03  -0.16
    13   6     0.01  -0.15  -0.02    -0.07  -0.13  -0.10     0.08   0.09  -0.14
    14   6     0.08  -0.12   0.02     0.12  -0.05   0.10    -0.11   0.02   0.14
    15   1     0.03  -0.10  -0.00    -0.11   0.35   0.00     0.05  -0.16   0.01
    16   1    -0.17   0.22   0.09    -0.01  -0.10  -0.26     0.06   0.09  -0.17
    17   1    -0.01   0.29  -0.09     0.07  -0.09   0.26    -0.10   0.05   0.17
    18   1    -0.12  -0.32   0.09     0.06   0.06  -0.12    -0.04  -0.06   0.09
    19   1     0.29  -0.18  -0.08    -0.09   0.02   0.11     0.08  -0.02  -0.09
    20   1     0.15   0.12   0.06    -0.02   0.06   0.14    -0.05  -0.07   0.34
    21   1    -0.19  -0.00  -0.07    -0.00   0.05  -0.14     0.06  -0.01  -0.33
    22   1     0.11  -0.21   0.03    -0.02  -0.12  -0.32     0.11   0.11  -0.37
    23   1     0.04  -0.24  -0.02     0.08  -0.07   0.33    -0.15   0.00   0.37
    24   1    -0.06   0.02  -0.08     0.15  -0.01   0.27    -0.11   0.01  -0.22
                     16                     17                     18
                      A                      A                      A
 Frequencies --    636.4089               653.2611               708.1355
 Red. masses --      6.8232                 4.4761                 4.5473
[...]
 0004416,0.00110964,0.00260410,-0.00120123,-0.00058161,-0.00037922,-0.0
 0010125,-0.33045356,-0.00174112,-0.04955869,0.00005648,-0.00007895,0.0
 0000304,0.00063442,0.00011991,0.00024722,0.00008372,0.00022806,0.00009
 624,-0.00919002,0.00311738,-0.00206103,-0.00005798,0.00006324,0.000010
 95,0.00101302,-0.00273417,-0.00122833,-0.00002452,0.00002480,-0.000003
 15,-0.00004241,0.00028419,0.00006039,0.34874798,-0.00000376,-0.0000976
 3,-0.00013746,-0.00016747,0.00104485,0.00029841,0.02676669,0.00612145,
 0.00430177,0.00016893,0.00008706,0.00006799,0.00169425,-0.00416039,-0.
 00034354,0.00134069,0.00037427,0.00018715,-0.00123421,-0.05836573,-0.0
 0076348,-0.00011681,0.00003068,-0.00001403,0.00002062,-0.00104904,-0.0
 0002319,-0.00010102,-0.00044107,-0.00000194,-0.02689594,0.00477295,-0.
 00442932,0.00000602,-0.00003382,-0.00000993,-0.00176380,-0.00430453,-0
 .00085172,0.00009246,0.00001412,0.00002162,-0.00009455,-0.00032130,0.0
 0015563,0.00130222,0.05504503,0.00012302,-0.00069019,-0.00026699,0.000
 82089,0.00001700,-0.00327299,-0.00144336,-0.00027027,0.00394788,0.0000
 2168,0.00002645,-0.00019042,-0.00090252,-0.00026459,0.00753774,-0.0000
 4715,-0.00002982,0.00002827,-0.05032818,-0.00099764,-0.04755042,0.0000
 0075,-0.00000403,0.00004479,0.00021905,-0.00001030,-0.00070979,0.00004
 400,0.00001706,-0.00017934,-0.00327994,0.00060270,0.00342518,-0.000006
 82,-0.00000789,-0.00001903,-0.00108365,-0.00094714,0.00683584,-0.00001
 457,0.00000918,0.00001490,0.00027779,0.00069091,-0.00013900,0.05513471
 ,0.00129218,0.03557199,0.00004751,0.00012065,0.00028535,-0.00026825,0.
 00003309,0.00016201,0.00016053,-0.00019742,0.00000912,0.00698504,0.002
 66747,0.00055646,0.00020713,0.00029073,0.00005530,0.00118034,0.0015735
 4,-0.00112626,-0.00005561,0.00002895,-0.00001809,-0.22409547,-0.129913
 73,-0.03855017,-0.00003383,0.00008159,0.00008127,0.00007024,0.00072500
 ,0.00015848,-0.00001711,-0.00007031,0.00000444,-0.01608692,-0.01975045
 ,-0.00440412,0.00006153,-0.00000144,0.00001319,-0.00332588,0.00374721,
 -0.00143515,0.00003108,-0.00021737,0.00009325,0.00001399,0.00000214,0.
 00000026,0.23509952,0.00004116,0.00013441,0.00039312,-0.00070082,0.001
 54146,-0.00020814,-0.00012046,-0.00016617,0.00001444,-0.02582222,-0.01
 253294,-0.00508582,-0.00146262,-0.00045318,-0.00025549,0.00251129,-0.0
 0431241,-0.00041628,0.00006041,0.00012107,0.00001039,-0.13161892,-0.16
 160563,-0.02964272,0.00041090,-0.00030855,0.00007368,0.00087006,-0.000
 48707,0.00016286,0.00001743,-0.00007543,0.00001384,0.01082842,0.010659
 59,0.00218302,-0.00007398,-0.00005603,-0.00001876,0.00255290,0.0000175
 7,-0.00006745,0.00034193,-0.00028222,-0.00014235,0.00004187,-0.0000472
 5,-0.00001196,0.14159509,0.16675314,-0.00016901,-0.00029176,-0.0001963
 7,0.00062200,0.00059657,-0.00318496,0.00008199,0.00001429,-0.00016227,
 -0.00135765,-0.00072396,0.00367544,-0.00006474,0.00003772,0.00007121,-
 0.00085462,-0.00034835,0.00756610,0.00000541,-0.00000521,0.00005205,-0
 .03917365,-0.02938324,-0.04630972,0.00004897,-0.00000762,-0.00019560,0
 .00014060,0.00013613,-0.00069929,-0.00000256,0.00000013,-0.00001942,-0
 .00231905,-0.00271342,0.00331077,-0.00000790,-0.00000480,0.00001898,-0
 .00148490,0.00012835,0.00682152,0.00065080,-0.00031646,-0.00012383,-0.
 00000863,0.00000937,0.00000589,0.04349742,0.03252246,0.03434396,0.0000
 0295,-0.00015524,0.00009227,-0.00049106,0.00033725,-0.00006832,0.00120
 067,-0.00246278,-0.00107478,-0.00016553,-0.00022457,-0.00004718,-0.010
 55532,0.00175933,-0.00214307,-0.00006491,0.00122373,0.00064151,0.00058
 408,-0.00011405,0.00021042,-0.00001419,0.00010786,-0.00001863,-0.33037
 460,-0.00325344,-0.04643615,-0.00007918,-0.00037110,-0.00002187,0.0008
 7807,0.00315218,-0.00081528,0.00007685,0.00001451,0.00002391,-0.010729
 66,-0.00356674,-0.00248655,0.00025162,-0.00008179,0.00004502,-0.000034
 02,-0.00012399,-0.00003064,-0.00011948,0.00001015,0.00016969,-0.000002
 35,-0.00000207,-0.00000331,0.34916097,-0.00000560,-0.00021307,0.000126
 52,-0.00117585,0.00017131,-0.00019143,-0.00143364,-0.00423074,-0.00087
 733,-0.00020703,0.00013694,-0.00004935,-0.02695440,0.00593457,-0.00410
 245,0.00066317,0.00108178,0.00037699,0.00000777,-0.00104108,-0.0000240
 6,0.00010154,0.00007336,0.00001104,-0.00485457,-0.05856248,-0.00188732
 ,-0.00066973,-0.00021049,-0.00011228,0.00200273,-0.00423973,-0.0002771
 7,0.00003004,0.00006250,0.00000547,0.02702890,0.00511779,0.00432669,0.
 00034454,-0.00008284,0.00005740,-0.00004337,-0.00019212,-0.00001854,-0
 .00003135,0.00010661,0.00006034,0.00000913,0.00002763,0.00000163,0.003
 89897,0.05546969,0.00006919,0.00011764,0.00009457,-0.00026292,-0.00000
 449,0.00004192,-0.00098897,-0.00093497,0.00675401,0.00004512,-0.000085
 72,0.00004420,-0.00378214,0.00053254,0.00336966,0.00062967,0.00036538,
 -0.00366326,0.00019839,-0.00006959,-0.00074713,-0.00003933,0.00006549,
 0.00011478,-0.04643088,-0.00169139,-0.04517551,-0.00008207,-0.00004166
 ,-0.00008544,-0.00090380,-0.00012269,0.00699697,0.00006176,0.00001526,
 -0.00003765,-0.00087316,-0.00048145,0.00373075,0.00006562,-0.00005318,
 -0.00008770,-0.00004588,-0.00018132,-0.00001719,0.00018693,0.00006542,
 -0.00116945,-0.00000283,-0.00000001,0.00000299,0.05140301,0.00225061,0
 .03331709,-0.00025617,0.00011186,-0.00016846,-0.00053071,-0.00095619,-
 0.00001898,-0.00026452,-0.00009978,-0.00003463,-0.00289330,0.00359923,
 -0.00135367,0.00127944,-0.00106237,0.00070461,-0.01641027,-0.01941427,
 -0.00428064,0.00012320,-0.00007135,-0.00000966,-0.00008789,0.00088097,
 0.00016272,-0.00062851,0.00004439,-0.00008863,-0.23016661,-0.13191236,
 -0.03749388,0.00009210,0.00001153,0.00002382,0.00142876,0.00131094,-0.
 00081260,0.00025196,0.00034239,0.00006830,0.00675126,0.00482824,0.0006
 9670,-0.00019669,0.00017307,-0.00001277,0.00000954,-0.00001167,-0.0000
 0290,-0.00004753,-0.00013158,0.00016803,0.00036413,0.00061268,0.000035
 52,0.24036078,0.00004880,-0.00002140,0.00004862,0.00051283,0.00031192,
 0.00006808,-0.00010118,0.00023314,-0.00000867,0.00261443,-0.00024175,0
 .00002991,-0.00049570,-0.00027401,0.00012176,0.00924007,0.01184049,0.0
 0189467,-0.00006646,-0.00005726,-0.00001827,0.00074468,-0.00035965,0.0
 0014469,0.00033507,0.00033967,0.00007343,-0.13026529,-0.15867679,-0.02
 723428,-0.00000602,0.00004416,0.00001142,0.00244511,-0.00479640,-0.000
 31595,-0.00008029,-0.00008357,-0.00001525,-0.02575593,-0.01233795,-0.0
 0491937,0.00006422,-0.00006161,-0.00001884,-0.00001772,0.00001305,-0.0
 0000268,-0.00009499,0.00003060,0.00005846,0.00009382,-0.00052504,-0.00
 002218,0.14180023,0.16412147,0.00011071,-0.00009585,0.00012930,-0.0001
 8641,-0.00016390,0.00003745,-0.00000839,0.00012009,0.00001759,-0.00131
 424,0.00016300,0.00677351,0.00073983,0.00010262,-0.00364544,-0.0027010
 4,-0.00270409,0.00341926,0.00001314,-0.00008807,0.00010973,0.00012418,
 0.00016525,-0.00077865,-0.00008746,-0.00002800,-0.00008398,-0.03734290
 ,-0.02748318,-0.04519601,0.00006749,0.00003349,-0.00003270,-0.00081397
 ,-0.00048804,0.00701561,0.00000756,0.00008812,-0.00008943,-0.00101852,
 -0.00008029,0.00376440,-0.00013906,0.00011143,-0.00001313,-0.00000147,
 0.00000004,0.00000088,0.00017949,0.00005689,-0.00118593,0.00000547,0.0
 0003664,0.00035401,0.04166157,0.03001784,0.03328879,0.00003134,0.00006
 601,0.00005155,0.00059759,-0.00046252,-0.00006368,-0.00076105,-0.00301
 293,-0.00137455,-0.00013848,-0.00016919,-0.00002259,-0.00069205,-0.000
 97304,-0.00002374,0.00011633,0.00000042,0.00011877,0.01103959,-0.01480
 856,0.00043852,0.00007153,0.00001475,0.00006235,-0.00487901,-0.0012374
 4,-0.00192371,-0.00005121,0.00001693,-0.00001309,-0.12838716,0.1223675
 6,-0.00869691,0.00001538,0.00000029,0.00000085,-0.00993836,0.02762181,
 -0.00080531,0.00002086,-0.00003322,0.00001180,-0.00000312,0.00001358,0
 .00001990,0.00064575,0.00048589,0.00079764,-0.00000012,0.00000866,0.00
 000220,-0.00059905,0.00123740,-0.00005089,0.00004781,-0.00002271,-0.00
 000185,0.13187130,0.00003013,0.00001814,0.00011523,0.00104558,-0.00023
 318,0.00011548,-0.00373987,-0.00298672,-0.00111426,-0.00029446,-0.0003
 7131,-0.00008552,-0.00081051,0.00029452,-0.00006253,0.00003933,0.00007
 177,0.00004250,0.01562226,-0.01742345,0.00148496,0.00014121,0.00001773
 ,0.00004239,-0.00036865,0.00148699,-0.00031255,0.00001416,-0.00002968,
 -0.00000078,0.12237962,-0.26819872,0.00812405,-0.00000196,-0.00004107,
 -0.00000397,-0.00318492,0.00383175,-0.00048876,0.00002266,-0.00000280,
 0.00000737,-0.00002168,-0.00003342,-0.00000003,-0.00008420,0.00109774,
 0.00025197,-0.00001029,0.00000297,-0.00000268,-0.00018503,0.00006362,-
 0.00003203,0.00000965,0.00000260,-0.00000017,-0.13083236,0.28179165,-0
 .00004190,-0.00011307,-0.00002650,0.00010861,-0.00015394,0.00058681,-0
 .00141704,-0.00101655,0.00645860,-0.00007006,-0.00002868,-0.00005495,-
 0.00004989,-0.00015605,-0.00089093,0.00009373,0.00006516,-0.00057951,0
 .00205591,-0.00335420,0.00392120,0.00008560,-0.00000137,-0.00030835,-0
 .00185550,-0.00042673,0.00629184,0.00000523,-0.00001862,0.00004176,-0.
 00885058,0.00818819,-0.03807659,-0.00002430,-0.00000506,0.00000106,-0.
 00229360,0.00443872,0.00351383,0.00002202,0.00002409,-0.00005913,0.000
 02500,0.00010917,0.00001261,0.00083979,0.00035077,-0.00399888,0.000000
 30,0.00000271,-0.00000627,-0.00013846,0.00019797,0.00018002,0.00000042
 ,-0.00000658,0.00005340,0.01066092,-0.00829772,0.02689463,0.00003254,-
 0.00004647,0.00000952,0.00062473,0.00107500,0.00012389,-0.00043853,0.0
 0010838,-0.00006500,-0.00494317,0.00154852,-0.00179138,0.00011828,0.00
 003518,0.00011383,-0.00118641,-0.00019681,-0.00004531,0.00012893,0.000
 06499,0.00007248,0.00054657,0.02888152,0.00120510,-0.00002795,-0.00001
 611,-0.00001108,-0.00323997,-0.00247947,-0.00168914,-0.00000549,0.0000
 2838,-0.00000083,-0.06289430,0.03890459,-0.00176027,0.00000412,0.00004
 190,0.00001312,0.00723315,-0.02495881,-0.00092993,-0.00003750,0.000017
 58,0.00001506,0.00000006,-0.00001023,-0.00000006,0.00102900,-0.0005051
 5,0.00077780,0.00002404,0.00003974,-0.00000140,0.00016785,-0.00115987,
 -0.00006242,0.00001134,0.00001731,-0.00001118,0.06200008,0.00007034,-0
 .00001068,0.00004630,-0.00049342,-0.00019964,-0.00017175,0.00022521,-0
 .00005452,0.00004292,0.00232038,0.00110662,0.00002585,-0.00000018,0.00
 007156,0.00003782,-0.00035455,0.00079507,0.00003773,-0.00005541,-0.000
 03785,0.00000587,-0.00158529,-0.00695835,-0.00090957,-0.00001361,-0.00
 005551,-0.00000696,-0.00335839,-0.00017948,-0.00092706,0.00003045,-0.0
 0001884,0.00000375,0.03892871,-0.33355154,-0.01154861,-0.00001624,0.00
 001293,0.00000129,0.00585235,-0.01332947,-0.00010884,0.00004606,-0.000
 03119,0.00001309,0.00000682,0.00000230,0.00000297,0.00005041,0.0007448
 9,0.00031040,0.00000736,0.00002623,-0.00000087,0.00026852,-0.00070418,
 -0.00000721,0.00000260,-0.00001423,-0.00000508,-0.04180809,0.35155423,
 -0.00008261,0.00005803,-0.00006932,0.00004770,0.00020737,0.00053533,-0
 .00009009,-0.00005203,-0.00001907,-0.00177456,-0.00008989,0.00646641,0
 .00011829,-0.00000030,-0.00058275,-0.00011245,0.00009811,-0.00090153,0
 .00006047,0.00006604,-0.00030473,-0.00046491,0.00388708,0.00389478,-0.
 00000417,0.00002767,0.00004504,-0.00170784,-0.00080322,0.00628033,-0.0
 0003023,-0.00001832,-0.00000310,-0.00185613,-0.01167157,-0.03795024,0.
 00004083,-0.00001144,-0.00005881,0.00092180,-0.00487101,0.00351550,0.0
 0007568,-0.00006764,0.00001578,0.00000198,-0.00000321,-0.00000537,0.00
 085315,0.00023351,-0.00400984,-0.00000412,0.00000509,0.00005323,0.0000
 1239,-0.00023546,0.00017915,-0.00001228,-0.00000317,0.00008365,0.00323
 365,0.01287993,0.02681706,0.00001606,0.00000043,0.00001224,0.00001625,
 -0.00006826,0.00009810,-0.00071745,0.00097052,0.00007874,-0.00011850,0
 .00017884,0.00002639,-0.00095978,0.00332959,-0.00111749,0.00061193,0.0
 0039751,0.00005709,-0.00501601,0.00116176,-0.00184813,0.00009787,0.000
 00437,0.00002649,0.01101769,0.01552769,0.00196438,0.00003391,-0.000019
 67,0.00000409,-0.00910484,-0.02787436,-0.00348726,-0.00000202,-0.00001
 240,0.00000095,-0.12096575,-0.11618257,-0.01932862,-0.00002542,-0.0000
 0537,0.00000014,-0.00001350,0.00000659,-0.00001172,-0.00051233,-0.0012
 4179,-0.00015040,-0.00000021,0.00002895,-0.00000562,0.00071965,-0.0005
 3209,0.00075837,-0.00001922,-0.00000160,-0.00001049,0.00099160,0.00022
 735,0.00084797,0.00000148,-0.00000185,-0.00000008,0.12392445,-0.000028
 20,-0.00000069,-0.00000134,0.00003411,0.00000327,0.00004899,0.00076980
 ,0.00038873,0.00016751,0.00019514,-0.00041347,0.00001278,0.00392033,-0
 .00292347,0.00009665,-0.00102681,-0.00009603,-0.00019120,0.00033336,0.
 00148685,-0.00020066,-0.00012580,0.00000588,-0.00001453,-0.01484920,-0
 .01741220,-0.00347414,-0.00007536,-0.00006496,-0.00001236,0.00294428,0
 .00341838,0.00044074,0.00003203,-0.00003604,0.00000521,-0.11616349,-0.
 27143418,-0.03072186,0.00001835,-0.00001002,0.00000382,-0.00003217,0.0
 0000086,-0.00000103,0.00017399,0.00004896,0.00002500,-0.00000076,-0.00
 004795,-0.00000584,0.00000519,0.00106394,0.00028244,0.00002194,0.00002
 272,0.00000257,-0.00029356,0.00068735,0.00020415,0.00000339,-0.0000117
 5,-0.00000109,0.12412186,0.28535762,-0.00002826,-0.00008037,0.00000066
 ,0.00016534,0.00007230,-0.00067539,-0.00000496,0.00021658,-0.00074878,
 0.00012179,0.00002526,-0.00026467,-0.00110240,-0.00001630,0.00707231,-
 0.00005222,-0.00004840,0.00040219,-0.00186027,-0.00007462,0.00638670,0
 .00001707,0.00001975,-0.00004761,0.00036244,0.00133347,0.00396006,0.00
 000814,0.00000377,-0.00000388,-0.00196402,-0.00448668,0.00327679,-0.00
 000238,-0.00000522,-0.00000862,-0.01927322,-0.03067436,-0.04271564,0.0
 0000180,0.00000492,-0.00003086,0.00008820,0.00009765,-0.00000196,-0.00
 010153,-0.00021012,0.00011628,-0.00001710,-0.00000417,0.00002804,0.000
 78749,0.00019474,-0.00413967,-0.00000616,-0.00000520,0.00004183,0.0008
 2225,0.00027768,-0.00401439,-0.00000028,-0.00000122,0.00000464,0.02208
 663,0.03334354,0.03137409,-0.00000917,0.00000373,0.00001933,0.00000594
 ,0.00007970,0.00010840,-0.00003629,0.00011286,0.00003407,0.00052930,-0
 .00083598,0.00015931,0.00002625,-0.00029071,-0.00008014,0.00180186,0.0
 0039621,-0.00082021,0.00000278,-0.00000594,0.00001110,-0.00175704,-0.0
 0372816,-0.00153804,-0.00004809,0.00003366,-0.00000410,0.00048002,-0.0
 0145994,-0.00057262,-0.00000764,0.00003524,0.00000353,-0.01646133,0.01
 225267,-0.00240496,-0.00001120,0.00000086,0.00000287,-0.29160970,0.100
 56740,-0.03372746,-0.00001880,-0.00001867,-0.00001253,-0.00000365,0.00
 000561,-0.00000687,-0.00086433,0.00053805,-0.00012523,0.00000661,-0.00
 001052,-0.00000666,0.00059383,0.00016489,0.00076277,-0.00000265,0.0000
 0888,-0.00000077,0.00084686,-0.00010359,0.00077803,0.00000034,0.000014
 56,0.00000060,0.30650180,-0.00000818,0.00001999,0.00000217,-0.00001882
 ,0.00004959,0.00000988,0.00007857,-0.00049058,0.00001425,-0.00062788,-
 0.00088536,-0.00007094,0.00114139,0.00047442,0.00018166,-0.00022503,-0
 .00568109,-0.00078049,0.00012667,0.00009547,0.00002764,-0.00288690,-0.
 00169758,-0.00095686,0.00008664,0.00001679,0.00001316,0.02895247,-0.00
 685640,0.00389555,-0.00000555,-0.00003058,-0.00000308,-0.01858890,0.01
 071109,-0.00246146,-0.00002283,-0.00002023,-0.00000261,0.10055032,-0.1
 0099384,0.01197530,0.00001789,0.00000104,-0.00001126,0.00003117,-0.000
 04471,-0.00000003,-0.00089118,0.00033210,-0.00012909,-0.00003479,-0.00
 000334,-0.00000849,-0.00037668,0.00119001,0.00025177,0.00000366,-0.000
 00731,0.00000053,0.00042164,0.00083826,0.00036200,0.00000707,-0.000027
 28,-0.00000051,-0.10776194,0.10299742,-0.00008588,-0.00003575,-0.00003
 446,0.00016984,0.00005510,-0.00061010,0.00010188,0.00004371,-0.0002606
 4,0.00013801,-0.00013002,-0.00079581,-0.00005848,-0.00000574,0.0004254
 7,-0.00083127,-0.00067546,0.00707699,0.00002595,0.00000372,-0.00004816
 ,-0.00146682,-0.00107712,0.00634370,0.00000717,0.00000683,-0.00000424,
 0.00111388,-0.00080594,0.00388556,-0.00000591,0.00000047,-0.00000864,-
 0.00427571,0.00228727,0.00317160,0.00000650,-0.00000343,-0.00003236,-0
 .03366523,0.01198980,-0.04229402,0.00011706,-0.00001307,-0.00000139,-0
 .00001418,-0.00000762,0.00002805,-0.00023169,0.00008554,0.00013150,-0.
 00000820,-0.00000074,0.00004311,0.00074271,0.00034207,-0.00414878,-0.0
 0000107,0.00000071,0.00000487,0.00080789,0.00028091,-0.00400478,0.0000
 0017,0.00000075,0.00000232,0.03742395,-0.01232376,0.03113097,-0.036151
 94,-0.07510715,0.00673251,-0.00397895,-0.01050645,0.00085177,-0.000921
 88,0.00088610,-0.00242694,0.00091508,-0.00061374,0.00145805,0.00009973
 ,-0.00030463,-0.00022468,0.00003638,-0.00082824,-0.00009066,-0.0002685
 7,0.00041138,-0.00002484,-0.00021344,-0.00038602,0.00007007,-0.0000862
 9,-0.00011865,0.00022397,0.00006300,0.00010663,-0.00001720,-0.00007822
 ,-0.00008628,0.00028018,-0.00009143,0.00039792,0.00008395,-0.00007273,
 -0.00000776,-0.00006367,0.00014777,-0.00002049,0.00000072,0.00024729,0
 .00035718,0.00001715,0.00028021,-0.00025441,-0.00034308,-0.00008829,0.
 00059071,-0.00041836,-0.00004030,-0.00005847,0.00001735,0.00003077,0.0
 0000359,0.00001601,-0.00000817,-0.00002421,0.00000777,0.00000429,-0.00
 001859,-0.00000448,0.00002381,0.00000702,-0.00004895,0.00003429,0.0000
 3119,-0.00001058,0.04011760,-0.08425052,-0.21716510,0.04251456,-0.0011
 0945,-0.00320732,0.00237584,-0.00107707,-0.00022981,-0.00232628,-0.000
 03303,0.00032548,-0.00036990,0.00081168,-0.00045083,-0.00023686,-0.000
 05711,0.00005646,-0.00003662,-0.00036369,0.00027474,-0.00017573,0.0001
 6605,-0.00003390,0.00008865,-0.00011754,-0.00025170,0.00008691,0.00012
 307,-0.00008472,0.00002300,0.00005186,0.00027218,-0.00006887,-0.000174
 36,0.00010777,0.00006677,-0.00026160,0.00003570,-0.00005597,0.00012199
 ,0.00014636,0.00004862,0.00054659,0.00030572,0.00024159,-0.00010644,0.
 00010640,0.00024079,0.00022295,0.00000943,0.00011691,-0.00003478,-0.00
 003504,0.00003525,0.00002059,-0.00001023,-0.00001097,0.00000599,-0.000
 02495,0.00000217,-0.00000710,0.00000513,0.00000353,-0.00002258,-0.0000
 0650,0.00001750,0.00000112,0.00001213,-0.00001824,0.08554339,0.2198425
 9,0.01746650,0.06584576,-0.03298981,-0.00884530,-0.02217171,0.00212912
 ,-0.00324547,0.00072526,-0.00497167,0.00074834,0.00015644,0.00071545,-
 0.00010763,-0.00124778,-0.00024242,0.00009983,-0.00031282,-0.00021336,
 -0.00039403,-0.00012540,-0.00000757,-0.00003807,-0.00000961,-0.0001301
 3,-0.00032246,-0.00012348,0.00030715,-0.00003061,0.00003751,-0.0000079
 9,0.00007586,0.00009061,0.00020389,0.00002756,0.00017025,-0.00004813,-
 0.00024355,-0.00007754,-0.00010569,0.00006381,-0.00003514,0.00001081,0
 .00091863,-0.00033160,0.00199180,0.00016022,0.00004521,-0.00005599,-0.
 00016408,0.00010066,0.00006504,-0.00008226,-0.00011047,0.00002569,0.00
 000621,-0.00000821,-0.00001083,0.00000293,-0.00005819,-0.00002879,-0.0
 0000406,-0.00000166,0.00001863,-0.00000194,-0.00001009,-0.00001442,-0.
 00000435,0.00001464,-0.00000073,-0.00608608,-0.04256266,0.03335995\\0.
 00000026,-0.00000023,-0.00000010,0.00000032,-0.00000036,-0.00000022,-0
 .00000023,0.00000014,-0.00000035,-0.00000018,0.00000004,0.00000003,-0.
 00000023,0.00000028,0.00000014,0.00000018,-0.00000029,-0.00000020,-0.0
 0000015,-0.00000030,-0.00000070,0.00000001,0.,0.00000041,0.00000012,0.
 00000003,-0.00000016,0.00000017,0.00000032,0.00000069,-0.00000017,0.00
 000006,-0.00000040,0.00000024,0.00000005,0.00000076,-0.00000014,0.0000
 0018,-0.00000045,0.00000028,0.00000012,0.00000053,-0.00000015,-0.00000
 008,-0.00000019,0.00000002,-0.00000009,-0.00000068,0.00000029,-0.00000
 007,0.00000027,-0.00000036,0.00000016,-0.00000001,-0.00000022,0.000000
 14,0.00000043,-0.00000021,-0.00000015,-0.00000081,0.00000017,0.0000001
 3,0.00000076,-0.00000035,0.00000003,-0.00000049,-0.00000004,0.00000024
 ,0.00000086,0.00000037,-0.00000035,-0.00000011\\\@


 NO SCIENCE HAS EVER MADE MORE RAPID PROGRESS IN A
 SHORTER TIME THAN CHEMISTRY.
   -- MARTIN HEINRICH KLOPROTH, 1791
 (FIRST PROFESSOR OF CHEMISTRY AT THE UNIVERSITY OF BERLIN)
 Job cpu time:       0 days  1 hours 20 minutes 12.7 seconds.
 File lengths (MBytes):  RWF=    190 Int=      0 D2E=      0 Chk=      6 Scr=      1
 Normal termination of Gaussian 09 at Thu Jul  9 20:56:39 2020.
